 vasp.5.4.4.18Apr17-6-g9f103f2a35 (build Apr 13 2025 12:23:30) complex          
  
 executed on             LinuxIFC date 2025.04.17  14:00:12
 running on   16 total cores
 distrk:  each k-point on   16 cores,    1 groups
 distr:  one band on NCORES_PER_BAND=   4 cores,    4 groups


--------------------------------------------------------------------------------------------------------


 INCAR:
 POTCAR:    PAW_PBE Co 02Aug2007                  
 POTCAR:    PAW_PBE O 08Apr2002                   
 POTCAR:    PAW_PBE Co 02Aug2007                  
   SHA256 =  0e690c60710354995174544f52f9f2c30879afabeffe3b3fbd4001cb294e56d4 Co
   COPYR  = (c) Copyright 02Aug2007 Georg Kresse                                
   COPYR  = This file is part of the software VASP. Any use, copying, and all ot
   COPYR  = If you do not have a valid VASP license, you may not use, copy or di
   VRHFIN =Co: d8 s1                                                            
   LEXCH  = PE                                                                  
   EATOM  =   813.3670 eV,   59.7808 Ry                                         
                                                                                
   TITEL  = PAW_PBE Co 02Aug2007                                                
   LULTRA =        F    use ultrasoft PP ?                                      
   IUNSCR =        1    unscreen: 0-lin 1-nonlin 2-no                           
   RPACOR =    2.000    partial core radius                                     
   POMASS =   58.933; ZVAL   =    9.000    mass and valenz                      
   RCORE  =    2.300    outmost cutoff radius                                   
   RWIGS  =    2.460; RWIGS  =    1.302    wigner-seitz radius (au A)           
   ENMAX  =  267.968; ENMIN  =  200.976 eV                                      
   RCLOC  =    1.203    cutoff for local pot                                    
   LCOR   =        T    correct aug charges                                     
   LPAW   =        T    paw PP                                                  
   EAUG   =  477.818                                                            
   DEXC   =    0.000                                                            
   RMAX   =    2.360    core radius for proj-oper                               
   RAUG   =    1.300    factor for augmentation sphere                          
   RDEP   =    2.393    radius for radial grids                                 
   RDEPT  =    1.864    core radius for aug-charge                              
                                                                                
   Atomic configuration                                                         
    9 entries                                                                   
     n  l   j            E        occ.                                          
     1  0  0.50     -7587.6674   2.0000                                         
     2  0  0.50      -893.6084   2.0000                                         
     2  1  1.50      -764.5805   6.0000                                         
     3  0  0.50       -97.5973   2.0000                                         
     3  1  1.50       -60.9648   6.0000                                         
     3  2  2.50        -4.2382   8.0000                                         
     4  0  0.50        -4.3746   1.0000                                         
     4  1  1.50        -4.0817   0.0000                                         
     4  3  2.50        -1.3606   0.0000                                         
   Description                                                                  
     l       E           TYP  RCUT    TYP  RCUT                                 
     2     -4.2382362     23  2.300                                             
     2     -5.5988188     23  2.300                                             
     0     -4.3745797     23  2.300                                             
     0      5.7660125     23  2.300                                             
     1     -2.7211652     23  2.300                                             
     1     16.9860234     23  2.300                                             
  local pseudopotential read in
  partial core-charges read in
  partial kinetic energy density read in
  atomic valenz-charges read in
  non local Contribution for L=           2  read in
    real space projection operators read in
  non local Contribution for L=           2  read in
    real space projection operators read in
  non local Contribution for L=           0  read in
    real space projection operators read in
  non local Contribution for L=           0  read in
    real space projection operators read in
  non local Contribution for L=           1  read in
    real space projection operators read in
  non local Contribution for L=           1  read in
    real space projection operators read in
    PAW grid and wavefunctions read in
 
   number of l-projection  operators is LMAX  =           6
   number of lm-projection operators is LMMAX =          18
 
 POTCAR:    PAW_PBE O 08Apr2002                   
   SHA256 =  818f92134a0a090dccd8ba1447fa70422a3b330e708bb4f08108d8ae51209ddf O/
   COPYR  = (c) Copyright 08Apr2002 Georg Kresse                                
   COPYR  = This file is part of the software VASP. Any use, copying, and all ot
   COPYR  = If you do not have a valid VASP license, you may not use, copy or di
   VRHFIN =O: s2p4                                                              
   LEXCH  = PE                                                                  
   EATOM  =   432.3788 eV,   31.7789 Ry                                         
                                                                                
   TITEL  = PAW_PBE O 08Apr2002                                                 
   LULTRA =        F    use ultrasoft PP ?                                      
   IUNSCR =        1    unscreen: 0-lin 1-nonlin 2-no                           
   RPACOR =    1.200    partial core radius                                     
   POMASS =   16.000; ZVAL   =    6.000    mass and valenz                      
   RCORE  =    1.520    outmost cutoff radius                                   
   RWIGS  =    1.550; RWIGS  =    0.820    wigner-seitz radius (au A)           
   ENMAX  =  400.000; ENMIN  =  300.000 eV                                      
   ICORE  =        2    local potential                                         
   LCOR   =        T    correct aug charges                                     
   LPAW   =        T    paw PP                                                  
   EAUG   =  605.392                                                            
   DEXC   =    0.000                                                            
   RMAX   =    1.553    core radius for proj-oper                               
   RAUG   =    1.300    factor for augmentation sphere                          
   RDEP   =    1.550    radius for radial grids                                 
   RDEPT  =    1.329    core radius for aug-charge                              
                                                                                
   Atomic configuration                                                         
    4 entries                                                                   
     n  l   j            E        occ.                                          
     1  0  0.50      -514.6923   2.0000                                         
     2  0  0.50       -23.9615   2.0000                                         
     2  1  0.50        -9.0305   4.0000                                         
     3  2  1.50        -9.5241   0.0000                                         
   Description                                                                  
     l       E           TYP  RCUT    TYP  RCUT                                 
     0    -23.9615318     23  1.200                                             
     0     -9.5240782     23  1.200                                             
     1     -9.0304911     23  1.520                                             
     1      8.1634956     23  1.520                                             
     2     -9.5240782      7  1.500                                             
  local pseudopotential read in
  partial core-charges read in
  partial kinetic energy density read in
  kinetic energy density of atom read in
  atomic valenz-charges read in
  non local Contribution for L=           0  read in
    real space projection operators read in
  non local Contribution for L=           0  read in
    real space projection operators read in
  non local Contribution for L=           1  read in
    real space projection operators read in
  non local Contribution for L=           1  read in
    real space projection operators read in
    PAW grid and wavefunctions read in
 
   number of l-projection  operators is LMAX  =           4
   number of lm-projection operators is LMMAX =           8
 
  PAW_PBE Co 02Aug2007                  :
 energy of atom  1       EATOM= -813.3670
 kinetic energy error for atom=    0.0093 (will be added to EATOM!!)
  PAW_PBE O 08Apr2002                   :
 energy of atom  2       EATOM= -432.3788
 kinetic energy error for atom=    0.1156 (will be added to EATOM!!)
 
 
 POSCAR: Co O                                    
  positions in cartesian coordinates
  No initial velocities read in
 exchange correlation table for  LEXCH =        8
   RHO(1)=    0.500       N(1)  =     2000
   RHO(2)=  100.500       N(2)  =     4000

 VTST: version 3.2, (02/03/18)

 CHAIN: initializing optimizer
 
 OPT: Using VASP Conjugate-Gradient optimizer
 CHAIN: Read ICHAIN            0
 
 POSCAR: Co O                                    
  positions in cartesian coordinates
  No initial velocities read in
 


--------------------------------------------------------------------------------------------------------


 ion  position               nearest neighbor table
   1  0.363  0.000  0.217-   3 1.88   5 1.88   4 1.88   4 1.88   6 1.88   6 1.88   2 2.83   2 2.83
                             2 2.83   2 2.83
   2  0.863  0.500  0.217-   4 1.88   6 1.88   3 1.88   3 1.88   5 1.88   5 1.88   1 2.83   1 2.83
                             1 2.83   1 2.83
   3  0.696  0.000  0.403-   1 1.88   2 1.88   2 1.88
   4  0.196  0.500  0.403-   2 1.88   1 1.88   1 1.88
   5  0.030  0.000  0.030-   1 1.88   2 1.88   2 1.88
   6  0.530  0.500  0.030-   2 1.88   1 1.88   1 1.88
 
  LATTYP: Found a simple monoclinic cell.
 ALAT       =     7.0345874932
 B/A-ratio  =     0.4017524344
 C/A-ratio  =     1.5955499500
 COS(beta)  =    -0.9497723909
  
  Lattice vectors:
  
 A1 = (  -4.5422715404,   0.0000000000,  -5.3715165877)
 A2 = (   0.0000000000,  -2.8261626503,  -0.0000000000)
 A3 = (   4.2013278466,   0.0000000000,  10.4080652493)


Analysis of symmetry for initial positions (statically):
=====================================================================
 Subroutine PRICEL returns following result:
 
  LATTYP: Found a base centered monoclinic cell.
 ALAT       =     4.8946904564
 B/A-ratio  =     0.5773935401
 C/A-ratio  =     2.2510795844
 COS(beta)  =    -0.7697729284
  
  Lattice vectors:
  
 A1 = (   2.4416076237,   1.4130813252,   0.1674839636)
 A2 = (   2.4416076237,  -1.4130813252,   0.1674839636)
 A3 = (  -9.4254868009,   0.0000000000,  -5.7064845158)
 
   2 primitive cells build up your supercell.
 

 Routine SETGRP: Setting up the symmetry group for a 
 simple monoclinic supercell.


 Subroutine GETGRP returns: Found  2 space group operations
 (whereof  2 operations were pure point group operations)
 out of a pool of  4 trial point group operations.


The static configuration has the point symmetry C_1h.


Analysis of symmetry for dynamics (positions and initial velocities):
=====================================================================
 Subroutine PRICEL returns following result:
 
  LATTYP: Found a base centered monoclinic cell.
 ALAT       =     4.8946904564
 B/A-ratio  =     0.5773935401
 C/A-ratio  =     2.2510795844
 COS(beta)  =    -0.7697729284
  
  Lattice vectors:
  
 A1 = (   2.4416076237,   1.4130813252,   0.1674839636)
 A2 = (   2.4416076237,  -1.4130813252,   0.1674839636)
 A3 = (  -9.4254868009,   0.0000000000,  -5.7064845158)
 
   2 primitive cells build up your supercell.
 

 Routine SETGRP: Setting up the symmetry group for a 
 simple monoclinic supercell.


 Subroutine GETGRP returns: Found  2 space group operations
 (whereof  2 operations were pure point group operations)
 out of a pool of  4 trial point group operations.


The dynamic configuration has the point symmetry C_1h.


 Subroutine INISYM returns: Found  2 space group operations
 (whereof  2 operations are pure point group operations),
 and found     2 'primitive' translations

 
 
 KPOINTS: KPOINTS created by Atomic Simulation Env

Automatic generation of k-mesh.
Space group operators:
 irot       det(A)        alpha          n_x          n_y          n_z        tau_x        tau_y        tau_z
    1     1.000000     0.000000     1.000000     0.000000     0.000000     0.000000     0.000000     0.000000
    2    -1.000000   180.000000    -0.000000    -1.000000     0.000000     0.000000     0.000000     0.000000
 
 Subroutine IBZKPT returns following result:
 ===========================================
 
 Found    120 irreducible k-points:
 
 Following reciprocal coordinates:
            Coordinates               Weight
  0.000000  0.000000  0.000000      1.000000
  0.166667  0.000000 -0.000000      2.000000
  0.333333  0.000000  0.000000      2.000000
  0.500000 -0.000000  0.000000      1.000000
  0.000000  0.090909 -0.000000      2.000000
  0.166667  0.090909 -0.000000      4.000000
  0.333333  0.090909  0.000000      4.000000
  0.500000  0.090909 -0.000000      2.000000
  0.000000  0.181818 -0.000000      2.000000
  0.166667  0.181818  0.000000      4.000000
  0.333333  0.181818 -0.000000      4.000000
  0.500000  0.181818  0.000000      2.000000
  0.000000  0.272727  0.000000      2.000000
  0.166667  0.272727  0.000000      4.000000
  0.333333  0.272727  0.000000      4.000000
  0.500000  0.272727 -0.000000      2.000000
  0.000000  0.363636 -0.000000      2.000000
  0.166667  0.363636  0.000000      4.000000
  0.333333  0.363636  0.000000      4.000000
  0.500000  0.363636  0.000000      2.000000
  0.000000  0.454545  0.000000      2.000000
  0.166667  0.454545 -0.000000      4.000000
  0.333333  0.454545  0.000000      4.000000
  0.500000  0.454545 -0.000000      2.000000
 -0.000000 -0.000000  0.166667      2.000000
  0.166667 -0.000000  0.166667      2.000000
  0.333333 -0.000000  0.166667      2.000000
  0.500000 -0.000000  0.166667      2.000000
 -0.333333 -0.000000  0.166667      2.000000
 -0.166667  0.000000  0.166667      2.000000
  0.000000  0.090909  0.166667      4.000000
  0.166667  0.090909  0.166667      4.000000
  0.333333  0.090909  0.166667      4.000000
  0.500000  0.090909  0.166667      4.000000
 -0.333333  0.090909  0.166667      4.000000
 -0.166667  0.090909  0.166667      4.000000
 -0.000000  0.181818  0.166667      4.000000
  0.166667  0.181818  0.166667      4.000000
  0.333333  0.181818  0.166667      4.000000
  0.500000  0.181818  0.166667      4.000000
 -0.333333  0.181818  0.166667      4.000000
 -0.166667  0.181818  0.166667      4.000000
 -0.000000  0.272727  0.166667      4.000000
  0.166667  0.272727  0.166667      4.000000
  0.333333  0.272727  0.166667      4.000000
  0.500000  0.272727  0.166667      4.000000
 -0.333333  0.272727  0.166667      4.000000
 -0.166667  0.272727  0.166667      4.000000
 -0.000000  0.363636  0.166667      4.000000
  0.166667  0.363636  0.166667      4.000000
  0.333333  0.363636  0.166667      4.000000
  0.500000  0.363636  0.166667      4.000000
 -0.333333  0.363636  0.166667      4.000000
 -0.166667  0.363636  0.166667      4.000000
 -0.000000  0.454545  0.166667      4.000000
  0.166667  0.454545  0.166667      4.000000
  0.333333  0.454545  0.166667      4.000000
  0.500000  0.454545  0.166667      4.000000
 -0.333333  0.454545  0.166667      4.000000
 -0.166667  0.454545  0.166667      4.000000
  0.000000  0.000000  0.333333      2.000000
  0.166667 -0.000000  0.333333      2.000000
  0.333333 -0.000000  0.333333      2.000000
  0.500000  0.000000  0.333333      2.000000
 -0.333333  0.000000  0.333333      2.000000
 -0.166667 -0.000000  0.333333      2.000000
 -0.000000  0.090909  0.333333      4.000000
  0.166667  0.090909  0.333333      4.000000
  0.333333  0.090909  0.333333      4.000000
  0.500000  0.090909  0.333333      4.000000
 -0.333333  0.090909  0.333333      4.000000
 -0.166667  0.090909  0.333333      4.000000
  0.000000  0.181818  0.333333      4.000000
  0.166667  0.181818  0.333333      4.000000
  0.333333  0.181818  0.333333      4.000000
  0.500000  0.181818  0.333333      4.000000
 -0.333333  0.181818  0.333333      4.000000
 -0.166667  0.181818  0.333333      4.000000
 -0.000000  0.272727  0.333333      4.000000
  0.166667  0.272727  0.333333      4.000000
  0.333333  0.272727  0.333333      4.000000
  0.500000  0.272727  0.333333      4.000000
 -0.333333  0.272727  0.333333      4.000000
 -0.166667  0.272727  0.333333      4.000000
  0.000000  0.363636  0.333333      4.000000
  0.166667  0.363636  0.333333      4.000000
  0.333333  0.363636  0.333333      4.000000
  0.500000  0.363636  0.333333      4.000000
 -0.333333  0.363636  0.333333      4.000000
 -0.166667  0.363636  0.333333      4.000000
 -0.000000  0.454545  0.333333      4.000000
  0.166667  0.454545  0.333333      4.000000
  0.333333  0.454545  0.333333      4.000000
  0.500000  0.454545  0.333333      4.000000
 -0.333333  0.454545  0.333333      4.000000
 -0.166667  0.454545  0.333333      4.000000
  0.000000 -0.000000  0.500000      1.000000
  0.166667  0.000000  0.500000      2.000000
  0.333333 -0.000000  0.500000      2.000000
  0.500000 -0.000000  0.500000      1.000000
 -0.000000  0.090909  0.500000      2.000000
  0.166667  0.090909  0.500000      4.000000
  0.333333  0.090909  0.500000      4.000000
  0.500000  0.090909  0.500000      2.000000
  0.000000  0.181818  0.500000      2.000000
  0.166667  0.181818  0.500000      4.000000
  0.333333  0.181818  0.500000      4.000000
  0.500000  0.181818  0.500000      2.000000
 -0.000000  0.272727  0.500000      2.000000
  0.166667  0.272727  0.500000      4.000000
  0.333333  0.272727  0.500000      4.000000
  0.500000  0.272727  0.500000      2.000000
  0.000000  0.363636  0.500000      2.000000
  0.166667  0.363636  0.500000      4.000000
  0.333333  0.363636  0.500000      4.000000
  0.500000  0.363636  0.500000      2.000000
  0.000000  0.454545  0.500000      2.000000
  0.166667  0.454545  0.500000      4.000000
  0.333333  0.454545  0.500000      4.000000
  0.500000  0.454545  0.500000      2.000000
 
 Following cartesian coordinates:
            Coordinates               Weight
  0.000000  0.000000  0.000000      1.000000
  0.033973  0.000000  0.002300      2.000000
  0.067946  0.000000  0.004599      2.000000
  0.101918  0.000000  0.006899      1.000000
  0.000000  0.032167 -0.000000      2.000000
  0.033973  0.032167  0.002300      4.000000
  0.067946  0.032167  0.004599      4.000000
  0.101918  0.032167  0.006899      2.000000
  0.000000  0.064334 -0.000000      2.000000
  0.033973  0.064334  0.002300      4.000000
  0.067946  0.064334  0.004599      4.000000
  0.101918  0.064334  0.006899      2.000000
  0.000000  0.096501 -0.000000      2.000000
  0.033973  0.096501  0.002300      4.000000
  0.067946  0.096501  0.004599      4.000000
  0.101918  0.096501  0.006899      2.000000
  0.000000  0.128668 -0.000000      2.000000
  0.033973  0.128668  0.002300      4.000000
  0.067946  0.128668  0.004599      4.000000
  0.101918  0.128668  0.006899      2.000000
  0.000000  0.160835 -0.000000      2.000000
  0.033973  0.160835  0.002300      4.000000
  0.067946  0.160835  0.004599      4.000000
  0.101918  0.160835  0.006899      2.000000
 -0.002259 -0.000000  0.032938      2.000000
  0.031713 -0.000000  0.035238      2.000000
  0.065686  0.000000  0.037538      2.000000
  0.099659  0.000000  0.039838      2.000000
 -0.070205 -0.000000  0.028339      2.000000
 -0.036232 -0.000000  0.030639      2.000000
 -0.002259  0.032167  0.032938      4.000000
  0.031713  0.032167  0.035238      4.000000
  0.065686  0.032167  0.037538      4.000000
  0.099659  0.032167  0.039838      4.000000
 -0.070205  0.032167  0.028339      4.000000
 -0.036232  0.032167  0.030639      4.000000
 -0.002259  0.064334  0.032938      4.000000
  0.031713  0.064334  0.035238      4.000000
  0.065686  0.064334  0.037538      4.000000
  0.099659  0.064334  0.039838      4.000000
 -0.070205  0.064334  0.028339      4.000000
 -0.036232  0.064334  0.030639      4.000000
 -0.002259  0.096501  0.032938      4.000000
  0.031713  0.096501  0.035238      4.000000
  0.065686  0.096501  0.037538      4.000000
  0.099659  0.096501  0.039838      4.000000
 -0.070205  0.096501  0.028339      4.000000
 -0.036232  0.096501  0.030639      4.000000
 -0.002259  0.128668  0.032938      4.000000
  0.031713  0.128668  0.035238      4.000000
  0.065686  0.128668  0.037538      4.000000
  0.099659  0.128668  0.039838      4.000000
 -0.070205  0.128668  0.028339      4.000000
 -0.036232  0.128668  0.030639      4.000000
 -0.002259  0.160835  0.032938      4.000000
  0.031713  0.160835  0.035238      4.000000
  0.065686  0.160835  0.037538      4.000000
  0.099659  0.160835  0.039838      4.000000
 -0.070205  0.160835  0.028339      4.000000
 -0.036232  0.160835  0.030639      4.000000
 -0.004519 -0.000000  0.065877      2.000000
  0.029454 -0.000000  0.068177      2.000000
  0.063427 -0.000000  0.070476      2.000000
  0.097399  0.000000  0.072776      2.000000
 -0.072464 -0.000000  0.061277      2.000000
 -0.038492 -0.000000  0.063577      2.000000
 -0.004519  0.032167  0.065877      4.000000
  0.029454  0.032167  0.068177      4.000000
  0.063427  0.032167  0.070476      4.000000
  0.097399  0.032167  0.072776      4.000000
 -0.072464  0.032167  0.061277      4.000000
 -0.038492  0.032167  0.063577      4.000000
 -0.004519  0.064334  0.065877      4.000000
  0.029454  0.064334  0.068177      4.000000
  0.063427  0.064334  0.070476      4.000000
  0.097399  0.064334  0.072776      4.000000
 -0.072464  0.064334  0.061277      4.000000
 -0.038492  0.064334  0.063577      4.000000
 -0.004519  0.096501  0.065877      4.000000
  0.029454  0.096501  0.068177      4.000000
  0.063427  0.096501  0.070476      4.000000
  0.097399  0.096501  0.072776      4.000000
 -0.072464  0.096501  0.061277      4.000000
 -0.038492  0.096501  0.063577      4.000000
 -0.004519  0.128668  0.065877      4.000000
  0.029454  0.128668  0.068177      4.000000
  0.063427  0.128668  0.070476      4.000000
  0.097399  0.128668  0.072776      4.000000
 -0.072464  0.128668  0.061277      4.000000
 -0.038492  0.128668  0.063577      4.000000
 -0.004519  0.160835  0.065877      4.000000
  0.029454  0.160835  0.068177      4.000000
  0.063427  0.160835  0.070476      4.000000
  0.097399  0.160835  0.072776      4.000000
 -0.072464  0.160835  0.061277      4.000000
 -0.038492  0.160835  0.063577      4.000000
 -0.006778 -0.000000  0.098815      1.000000
  0.027194 -0.000000  0.101115      2.000000
  0.061167 -0.000000  0.103415      2.000000
  0.095140 -0.000000  0.105715      1.000000
 -0.006778  0.032167  0.098815      2.000000
  0.027194  0.032167  0.101115      4.000000
  0.061167  0.032167  0.103415      4.000000
  0.095140  0.032167  0.105715      2.000000
 -0.006778  0.064334  0.098815      2.000000
  0.027194  0.064334  0.101115      4.000000
  0.061167  0.064334  0.103415      4.000000
  0.095140  0.064334  0.105715      2.000000
 -0.006778  0.096501  0.098815      2.000000
  0.027194  0.096501  0.101115      4.000000
  0.061167  0.096501  0.103415      4.000000
  0.095140  0.096501  0.105715      2.000000
 -0.006778  0.128668  0.098815      2.000000
  0.027194  0.128668  0.101115      4.000000
  0.061167  0.128668  0.103415      4.000000
  0.095140  0.128668  0.105715      2.000000
 -0.006778  0.160835  0.098815      2.000000
  0.027194  0.160835  0.101115      4.000000
  0.061167  0.160835  0.103415      4.000000
  0.095140  0.160835  0.105715      2.000000
 


--------------------------------------------------------------------------------------------------------




 Dimension of arrays:
   k-points           NKPTS =    120   k-points in BZ     NKDIM =    120   number of bands    NBANDS=     28
   number of dos      NEDOS =    301   number of ions     NIONS =      6
   non local maximal  LDIM  =      6   non local SUM 2l+1 LMDIM =     18
   total plane-waves  NPLWV =   9408
   max r-space proj   IRMAX =      1   max aug-charges    IRDMAX=   5512
   dimension x,y,z NGX =    24 NGY =   14 NGZ =   28
   dimension x,y,z NGXF=    48 NGYF=   28 NGZF=   56
   support grid    NGXF=    48 NGYF=   28 NGZF=   56
   ions per type =               2   4
   NGX,Y,Z   is equivalent  to a cutoff of   8.15,  8.24,  9.22 a.u.
   NGXF,Y,Z  is equivalent  to a cutoff of  16.30, 16.47, 18.44 a.u.

 SYSTEM =  unknown system                          
 POSCAR =  Co O                                    

 Startparameter for this run:
   NWRITE =      2    write-flag & timer
   PREC   = normal    normal or accurate (medium, high low for compatibility)
   ISTART =      0    job   : 0-new  1-cont  2-samecut
   ICHARG =      2    charge: 1-file 2-atom 10-const
   ISPIN  =      1    spin polarized calculation?
   LNONCOLLINEAR =      F non collinear calculations
   LSORBIT =      F    spin-orbit coupling
   INIWAV =      1    electr: 0-lowe 1-rand  2-diag
   LASPH  =      F    aspherical Exc in radial PAW
   METAGGA=      F    non-selfconsistent MetaGGA calc.

 Electronic Relaxation 1
   ENCUT  =  400.0 eV  29.40 Ry    5.42 a.u.   7.98  4.61  8.23*2*pi/ulx,y,z
   ENINI  =  400.0     initial cutoff
   ENAUG  =  605.4 eV  augmentation charge cutoff
   NELM   =     60;   NELMIN=  4; NELMDL= -5     # of ELM steps 
   EDIFF  = 0.1E-05   stopping-criterion for ELM
   LREAL  =      F    real-space projection
   NLSPLINE    = F    spline interpolate recip. space projectors
   LCOMPAT=      F    compatible to vasp.4.4
   GGA_COMPAT  = T    GGA compatible to vasp.4.4-vasp.4.6
   LMAXPAW     = -100 max onsite density
   LMAXMIX     =    2 max onsite mixed and CHGCAR
   VOSKOWN=      0    Vosko Wilk Nusair interpolation
   ROPT   =    0.00000   0.00000
 Ionic relaxation
   EDIFFG = 0.1E-01   stopping-criterion for IOM
   NSW    =     20    number of steps for IOM
   NBLOCK =      1;   KBLOCK =     20    inner block; outer block 
   IBRION =      2    ionic relax: 0-MD 1-quasi-New 2-CG
   NFREE  =      1    steps in history (QN), initial steepest desc. (CG)
   ISIF   =      3    stress and relaxation
   IWAVPR =     11    prediction:  0-non 1-charg 2-wave 3-comb
   ISYM   =      2    0-nonsym 1-usesym 2-fastsym
   LCORR  =      T    Harris-Foulkes like correction to forces

   POTIM  = 0.5000    time-step for ionic-motion
   TEIN   =    0.0    initial temperature
   TEBEG  =    0.0;   TEEND  =   0.0 temperature during run
   SMASS  =  -3.00    Nose mass-parameter (am)
   estimated Nose-frequenzy (Omega)   =  0.10E-29 period in steps =****** mass=  -0.548E-27a.u.
   SCALEE = 1.0000    scale energy and forces
   NPACO  =    256;   APACO  = 16.0  distance and # of slots for P.C.
   PSTRESS=    0.0 pullay stress

  Mass of Ions in am
   POMASS =  58.93 16.00
  Ionic Valenz
   ZVAL   =   9.00  6.00
  Atomic Wigner-Seitz radii
   RWIGS  =  -1.00 -1.00
  virtual crystal weights 
   VCA    =   1.00  1.00
   NELECT =      42.0000    total number of electrons
   NUPDOWN=      -1.0000    fix difference up-down

 DOS related values:
   EMIN   =  10.00;   EMAX   =-10.00  energy-range for DOS
   EFERMI =   0.00
   ISMEAR =     0;   SIGMA  =   0.10  broadening in eV -4-tet -1-fermi 0-gaus

 Electronic relaxation 2 (details)
   IALGO  =     38    algorithm
   LDIAG  =      T    sub-space diagonalisation (order eigenvalues)
   LSUBROT=      F    optimize rotation matrix (better conditioning)
   TURBO    =      0    0=normal 1=particle mesh
   IRESTART =      0    0=no restart 2=restart with 2 vectors
   NREBOOT  =      0    no. of reboots
   NMIN     =      0    reboot dimension
   EREF     =   0.00    reference energy to select bands
   IMIX   =      4    mixing-type and parameters
     AMIX     =   0.40;   BMIX     =  1.00
     AMIX_MAG =   1.60;   BMIX_MAG =  1.00
     AMIN     =   0.10
     WC   =   100.;   INIMIX=   1;  MIXPRE=   1;  MAXMIX= -45

 Intra band minimization:
   WEIMIN = 0.0010     energy-eigenvalue tresh-hold
   EBREAK =  0.89E-08  absolut break condition
   DEPER  =   0.30     relativ break condition  

   TIME   =   0.40     timestep for ELM

  volume/ion in A,a.u.               =      11.64        78.54
  Fermi-wavevector in a.u.,A,eV,Ry     =   1.381896  2.611404 25.982169  1.909636
  Thomas-Fermi vector in A             =   2.506637
 
 Write flags
   LWAVE        =      F    write WAVECAR
   LDOWNSAMPLE  =      F    k-point downsampling of WAVECAR
   LCHARG       =      F    write CHGCAR
   LVTOT        =      F    write LOCPOT, total local potential
   LVHAR        =      F    write LOCPOT, Hartree potential only
   LELF         =      F    write electronic localiz. function (ELF)
   LORBIT       =      0    0 simple, 1 ext, 2 COOP (PROOUT), +10 PAW based schemes


 Dipole corrections
   LMONO  =      F    monopole corrections only (constant potential shift)
   LDIPOL =      F    correct potential (dipole corrections)
   IDIPOL =      0    1-x, 2-y, 3-z, 4-all directions 
   EPSILON=  1.0000000 bulk dielectric constant

 Exchange correlation treatment:
   GGA     =    PE    GGA type
   LEXCH   =     8    internal setting for exchange type
   VOSKOWN=      0    Vosko Wilk Nusair interpolation
   LHFCALC =     F    Hartree Fock is set to
   LHFONE  =     F    Hartree Fock one center treatment
   AEXX    =    0.0000 exact exchange contribution

 Linear response parameters
   LEPSILON=     F    determine dielectric tensor
   LRPA    =     F    only Hartree local field effects (RPA)
   LNABLA  =     F    use nabla operator in PAW spheres
   LVEL    =     F    velocity operator in full k-point grid
   LINTERFAST=   F  fast interpolation
   KINTER  =     0    interpolate to denser k-point grid
   CSHIFT  =0.1000    complex shift for real part using Kramers Kronig
   OMEGAMAX=  -1.0    maximum frequency
   DEG_THRESHOLD= 0.2000000E-02 threshold for treating states as degnerate
   RTIME   =   -0.100 relaxation time in fs
  (WPLASMAI=    0.000 imaginary part of plasma frequency in eV, 0.658/RTIME)
   DFIELD  = 0.0000000 0.0000000 0.0000000 field for delta impulse in time
 
 Orbital magnetization related:
   ORBITALMAG=     F  switch on orbital magnetization
   LCHIMAG   =     F  perturbation theory with respect to B field
   DQ        =  0.001000  dq finite difference perturbation B field
   LLRAUG    =     F  two centre corrections for induced B field



--------------------------------------------------------------------------------------------------------


 conjugate gradient relaxation of ions
 charge density and potential will be updated during run
 non-spin polarized calculation
 Variant of blocked Davidson
 Davidson routine will perform the subspace rotation
 perform sub-space diagonalisation
    after iterative eigenvector-optimisation
 modified Broyden-mixing scheme, WC =      100.0
 initial mixing is a Kerker type mixing with AMIX =  0.4000 and BMIX =      1.0000
 Hartree-type preconditioning will be used
 using additional bands            7
 reciprocal scheme for non local part
 use partial core corrections
 calculate Harris-corrections to forces 
   (improved forces if not selfconsistent)
 use gradient corrections 
 use of overlap-Matrix (Vanderbilt PP)
 Gauss-broadening in eV      SIGMA  =   0.10


--------------------------------------------------------------------------------------------------------


  energy-cutoff  :      400.00
  volume of cell :       69.83
      direct lattice vectors                 reciprocal lattice vectors
     4.883215234 -0.000000000  0.334967926     0.203836591  0.000000000  0.013798497
    -0.000000000  2.826162650  0.000000000     0.000000000  0.353836677 -0.000000000
    -0.340943694  0.000000000  5.036548662    -0.013556649 -0.000000000  0.197630960

  length of vectors
     4.894690443  2.826162650  5.048075378     0.204303094  0.353836677  0.198095379


 
 k-points in units of 2pi/SCALE and weight: KPOINTS created by Atomic Simulation Env
   0.00000000  0.00000000  0.00000000       0.003
   0.03397277  0.00000000  0.00229975       0.005
   0.06794553  0.00000000  0.00459950       0.005
   0.10191830  0.00000000  0.00689925       0.003
   0.00000000  0.03216697 -0.00000000       0.005
   0.03397277  0.03216697  0.00229975       0.010
   0.06794553  0.03216697  0.00459950       0.010
   0.10191830  0.03216697  0.00689925       0.005
   0.00000000  0.06433394 -0.00000000       0.005
   0.03397277  0.06433394  0.00229975       0.010
   0.06794553  0.06433394  0.00459950       0.010
   0.10191830  0.06433394  0.00689925       0.005
   0.00000000  0.09650091 -0.00000000       0.005
   0.03397277  0.09650091  0.00229975       0.010
   0.06794553  0.09650091  0.00459950       0.010
   0.10191830  0.09650091  0.00689925       0.005
   0.00000000  0.12866788 -0.00000000       0.005
   0.03397277  0.12866788  0.00229975       0.010
   0.06794553  0.12866788  0.00459950       0.010
   0.10191830  0.12866788  0.00689925       0.005
   0.00000000  0.16083485 -0.00000000       0.005
   0.03397277  0.16083485  0.00229975       0.010
   0.06794553  0.16083485  0.00459950       0.010
   0.10191830  0.16083485  0.00689925       0.005
  -0.00225944 -0.00000000  0.03293849       0.005
   0.03171332 -0.00000000  0.03523824       0.005
   0.06568609  0.00000000  0.03753799       0.005
   0.09965885  0.00000000  0.03983774       0.005
  -0.07020497 -0.00000000  0.02833899       0.005
  -0.03623221 -0.00000000  0.03063874       0.005
  -0.00225944  0.03216697  0.03293849       0.010
   0.03171332  0.03216697  0.03523824       0.010
   0.06568609  0.03216697  0.03753799       0.010
   0.09965885  0.03216697  0.03983774       0.010
  -0.07020497  0.03216697  0.02833899       0.010
  -0.03623221  0.03216697  0.03063874       0.010
  -0.00225944  0.06433394  0.03293849       0.010
   0.03171332  0.06433394  0.03523824       0.010
   0.06568609  0.06433394  0.03753799       0.010
   0.09965885  0.06433394  0.03983774       0.010
  -0.07020497  0.06433394  0.02833899       0.010
  -0.03623221  0.06433394  0.03063874       0.010
  -0.00225944  0.09650091  0.03293849       0.010
   0.03171332  0.09650091  0.03523824       0.010
   0.06568609  0.09650091  0.03753799       0.010
   0.09965885  0.09650091  0.03983774       0.010
  -0.07020497  0.09650091  0.02833899       0.010
  -0.03623221  0.09650091  0.03063874       0.010
  -0.00225944  0.12866788  0.03293849       0.010
   0.03171332  0.12866788  0.03523824       0.010
   0.06568609  0.12866788  0.03753799       0.010
   0.09965885  0.12866788  0.03983774       0.010
  -0.07020497  0.12866788  0.02833899       0.010
  -0.03623221  0.12866788  0.03063874       0.010
  -0.00225944  0.16083485  0.03293849       0.010
   0.03171332  0.16083485  0.03523824       0.010
   0.06568609  0.16083485  0.03753799       0.010
   0.09965885  0.16083485  0.03983774       0.010
  -0.07020497  0.16083485  0.02833899       0.010
  -0.03623221  0.16083485  0.03063874       0.010
  -0.00451888 -0.00000000  0.06587699       0.005
   0.02945388 -0.00000000  0.06817674       0.005
   0.06342665 -0.00000000  0.07047649       0.005
   0.09739941  0.00000000  0.07277623       0.005
  -0.07246441 -0.00000000  0.06127749       0.005
  -0.03849165 -0.00000000  0.06357724       0.005
  -0.00451888  0.03216697  0.06587699       0.010
   0.02945388  0.03216697  0.06817674       0.010
   0.06342665  0.03216697  0.07047649       0.010
   0.09739941  0.03216697  0.07277623       0.010
  -0.07246441  0.03216697  0.06127749       0.010
  -0.03849165  0.03216697  0.06357724       0.010
  -0.00451888  0.06433394  0.06587699       0.010
   0.02945388  0.06433394  0.06817674       0.010
   0.06342665  0.06433394  0.07047649       0.010
   0.09739941  0.06433394  0.07277623       0.010
  -0.07246441  0.06433394  0.06127749       0.010
  -0.03849165  0.06433394  0.06357724       0.010
  -0.00451888  0.09650091  0.06587699       0.010
   0.02945388  0.09650091  0.06817674       0.010
   0.06342665  0.09650091  0.07047649       0.010
   0.09739941  0.09650091  0.07277623       0.010
  -0.07246441  0.09650091  0.06127749       0.010
  -0.03849165  0.09650091  0.06357724       0.010
  -0.00451888  0.12866788  0.06587699       0.010
   0.02945388  0.12866788  0.06817674       0.010
   0.06342665  0.12866788  0.07047649       0.010
   0.09739941  0.12866788  0.07277623       0.010
  -0.07246441  0.12866788  0.06127749       0.010
  -0.03849165  0.12866788  0.06357724       0.010
  -0.00451888  0.16083485  0.06587699       0.010
   0.02945388  0.16083485  0.06817674       0.010
   0.06342665  0.16083485  0.07047649       0.010
   0.09739941  0.16083485  0.07277623       0.010
  -0.07246441  0.16083485  0.06127749       0.010
  -0.03849165  0.16083485  0.06357724       0.010
  -0.00677832 -0.00000000  0.09881548       0.003
   0.02719444 -0.00000000  0.10111523       0.005
   0.06116721 -0.00000000  0.10341498       0.005
   0.09513997 -0.00000000  0.10571473       0.003
  -0.00677832  0.03216697  0.09881548       0.005
   0.02719444  0.03216697  0.10111523       0.010
   0.06116721  0.03216697  0.10341498       0.010
   0.09513997  0.03216697  0.10571473       0.005
  -0.00677832  0.06433394  0.09881548       0.005
   0.02719444  0.06433394  0.10111523       0.010
   0.06116721  0.06433394  0.10341498       0.010
   0.09513997  0.06433394  0.10571473       0.005
  -0.00677832  0.09650091  0.09881548       0.005
   0.02719444  0.09650091  0.10111523       0.010
   0.06116721  0.09650091  0.10341498       0.010
   0.09513997  0.09650091  0.10571473       0.005
  -0.00677832  0.12866788  0.09881548       0.005
   0.02719444  0.12866788  0.10111523       0.010
   0.06116721  0.12866788  0.10341498       0.010
   0.09513997  0.12866788  0.10571473       0.005
  -0.00677832  0.16083485  0.09881548       0.005
   0.02719444  0.16083485  0.10111523       0.010
   0.06116721  0.16083485  0.10341498       0.010
   0.09513997  0.16083485  0.10571473       0.005
 
 k-points in reciprocal lattice and weights: KPOINTS created by Atomic Simulation Env
   0.00000000  0.00000000  0.00000000       0.003
   0.16666667  0.00000000 -0.00000000       0.005
   0.33333333  0.00000000  0.00000000       0.005
   0.50000000 -0.00000000  0.00000000       0.003
   0.00000000  0.09090909 -0.00000000       0.005
   0.16666667  0.09090909 -0.00000000       0.010
   0.33333333  0.09090909  0.00000000       0.010
   0.50000000  0.09090909 -0.00000000       0.005
   0.00000000  0.18181818 -0.00000000       0.005
   0.16666667  0.18181818  0.00000000       0.010
   0.33333333  0.18181818 -0.00000000       0.010
   0.50000000  0.18181818  0.00000000       0.005
   0.00000000  0.27272727  0.00000000       0.005
   0.16666667  0.27272727  0.00000000       0.010
   0.33333333  0.27272727  0.00000000       0.010
   0.50000000  0.27272727 -0.00000000       0.005
   0.00000000  0.36363636 -0.00000000       0.005
   0.16666667  0.36363636  0.00000000       0.010
   0.33333333  0.36363636  0.00000000       0.010
   0.50000000  0.36363636  0.00000000       0.005
   0.00000000  0.45454545  0.00000000       0.005
   0.16666667  0.45454545 -0.00000000       0.010
   0.33333333  0.45454545  0.00000000       0.010
   0.50000000  0.45454545 -0.00000000       0.005
  -0.00000000 -0.00000000  0.16666667       0.005
   0.16666667 -0.00000000  0.16666667       0.005
   0.33333333 -0.00000000  0.16666667       0.005
   0.50000000 -0.00000000  0.16666667       0.005
  -0.33333333 -0.00000000  0.16666667       0.005
  -0.16666667  0.00000000  0.16666667       0.005
   0.00000000  0.09090909  0.16666667       0.010
   0.16666667  0.09090909  0.16666667       0.010
   0.33333333  0.09090909  0.16666667       0.010
   0.50000000  0.09090909  0.16666667       0.010
  -0.33333333  0.09090909  0.16666667       0.010
  -0.16666667  0.09090909  0.16666667       0.010
  -0.00000000  0.18181818  0.16666667       0.010
   0.16666667  0.18181818  0.16666667       0.010
   0.33333333  0.18181818  0.16666667       0.010
   0.50000000  0.18181818  0.16666667       0.010
  -0.33333333  0.18181818  0.16666667       0.010
  -0.16666667  0.18181818  0.16666667       0.010
  -0.00000000  0.27272727  0.16666667       0.010
   0.16666667  0.27272727  0.16666667       0.010
   0.33333333  0.27272727  0.16666667       0.010
   0.50000000  0.27272727  0.16666667       0.010
  -0.33333333  0.27272727  0.16666667       0.010
  -0.16666667  0.27272727  0.16666667       0.010
  -0.00000000  0.36363636  0.16666667       0.010
   0.16666667  0.36363636  0.16666667       0.010
   0.33333333  0.36363636  0.16666667       0.010
   0.50000000  0.36363636  0.16666667       0.010
  -0.33333333  0.36363636  0.16666667       0.010
  -0.16666667  0.36363636  0.16666667       0.010
  -0.00000000  0.45454545  0.16666667       0.010
   0.16666667  0.45454545  0.16666667       0.010
   0.33333333  0.45454545  0.16666667       0.010
   0.50000000  0.45454545  0.16666667       0.010
  -0.33333333  0.45454545  0.16666667       0.010
  -0.16666667  0.45454545  0.16666667       0.010
   0.00000000  0.00000000  0.33333333       0.005
   0.16666667 -0.00000000  0.33333333       0.005
   0.33333333 -0.00000000  0.33333333       0.005
   0.50000000  0.00000000  0.33333333       0.005
  -0.33333333  0.00000000  0.33333333       0.005
  -0.16666667 -0.00000000  0.33333333       0.005
  -0.00000000  0.09090909  0.33333333       0.010
   0.16666667  0.09090909  0.33333333       0.010
   0.33333333  0.09090909  0.33333333       0.010
   0.50000000  0.09090909  0.33333333       0.010
  -0.33333333  0.09090909  0.33333333       0.010
  -0.16666667  0.09090909  0.33333333       0.010
   0.00000000  0.18181818  0.33333333       0.010
   0.16666667  0.18181818  0.33333333       0.010
   0.33333333  0.18181818  0.33333333       0.010
   0.50000000  0.18181818  0.33333333       0.010
  -0.33333333  0.18181818  0.33333333       0.010
  -0.16666667  0.18181818  0.33333333       0.010
  -0.00000000  0.27272727  0.33333333       0.010
   0.16666667  0.27272727  0.33333333       0.010
   0.33333333  0.27272727  0.33333333       0.010
   0.50000000  0.27272727  0.33333333       0.010
  -0.33333333  0.27272727  0.33333333       0.010
  -0.16666667  0.27272727  0.33333333       0.010
   0.00000000  0.36363636  0.33333333       0.010
   0.16666667  0.36363636  0.33333333       0.010
   0.33333333  0.36363636  0.33333333       0.010
   0.50000000  0.36363636  0.33333333       0.010
  -0.33333333  0.36363636  0.33333333       0.010
  -0.16666667  0.36363636  0.33333333       0.010
  -0.00000000  0.45454545  0.33333333       0.010
   0.16666667  0.45454545  0.33333333       0.010
   0.33333333  0.45454545  0.33333333       0.010
   0.50000000  0.45454545  0.33333333       0.010
  -0.33333333  0.45454545  0.33333333       0.010
  -0.16666667  0.45454545  0.33333333       0.010
   0.00000000 -0.00000000  0.50000000       0.003
   0.16666667  0.00000000  0.50000000       0.005
   0.33333333 -0.00000000  0.50000000       0.005
   0.50000000 -0.00000000  0.50000000       0.003
  -0.00000000  0.09090909  0.50000000       0.005
   0.16666667  0.09090909  0.50000000       0.010
   0.33333333  0.09090909  0.50000000       0.010
   0.50000000  0.09090909  0.50000000       0.005
   0.00000000  0.18181818  0.50000000       0.005
   0.16666667  0.18181818  0.50000000       0.010
   0.33333333  0.18181818  0.50000000       0.010
   0.50000000  0.18181818  0.50000000       0.005
  -0.00000000  0.27272727  0.50000000       0.005
   0.16666667  0.27272727  0.50000000       0.010
   0.33333333  0.27272727  0.50000000       0.010
   0.50000000  0.27272727  0.50000000       0.005
   0.00000000  0.36363636  0.50000000       0.005
   0.16666667  0.36363636  0.50000000       0.010
   0.33333333  0.36363636  0.50000000       0.010
   0.50000000  0.36363636  0.50000000       0.005
   0.00000000  0.45454545  0.50000000       0.005
   0.16666667  0.45454545  0.50000000       0.010
   0.33333333  0.45454545  0.50000000       0.010
   0.50000000  0.45454545  0.50000000       0.005
 
 position of ions in fractional coordinates (direct lattice) 
   0.36333391  0.00000000  0.21667001
   0.86333391  0.50000000  0.21667001
   0.69649096  0.00000000  0.40323562
   0.19649096  0.50000000  0.40323562
   0.03017513  0.00000000  0.03009437
   0.53017513  0.50000000  0.03009437
 
 position of ions in cartesian coordinates  (Angst):
   1.70036541 -0.00000000  1.21297424
   4.14197302  1.41308133  1.38045821
   3.26363462 -0.00000000  2.26421796
   0.82202700  1.41308133  2.09673399
   0.13709118 -0.00000000  0.16167947
   2.57869879  1.41308133  0.32916343
 


--------------------------------------------------------------------------------------------------------


 k-point  1 :   0.0000 0.0000 0.0000  plane waves:    1267
 k-point  2 :   0.1667 0.0000-0.0000  plane waves:    1274
 k-point  3 :   0.3333 0.0000 0.0000  plane waves:    1286
 k-point  4 :   0.5000-0.0000 0.0000  plane waves:    1288
 k-point  5 :   0.0000 0.0909-0.0000  plane waves:    1285
 k-point  6 :   0.1667 0.0909-0.0000  plane waves:    1274
 k-point  7 :   0.3333 0.0909 0.0000  plane waves:    1278
 k-point  8 :   0.5000 0.0909-0.0000  plane waves:    1272
 k-point  9 :   0.0000 0.1818-0.0000  plane waves:    1271
 k-point 10 :   0.1667 0.1818 0.0000  plane waves:    1276
 k-point 11 :   0.3333 0.1818-0.0000  plane waves:    1274
 k-point 12 :   0.5000 0.1818 0.0000  plane waves:    1260
 k-point 13 :   0.0000 0.2727 0.0000  plane waves:    1255
 k-point 14 :   0.1667 0.2727 0.0000  plane waves:    1263
 k-point 15 :   0.3333 0.2727 0.0000  plane waves:    1268
 k-point 16 :   0.5000 0.2727-0.0000  plane waves:    1272
 k-point 17 :   0.0000 0.3636-0.0000  plane waves:    1249
 k-point 18 :   0.1667 0.3636 0.0000  plane waves:    1267
 k-point 19 :   0.3333 0.3636 0.0000  plane waves:    1271
 k-point 20 :   0.5000 0.3636 0.0000  plane waves:    1266
 k-point 21 :   0.0000 0.4545 0.0000  plane waves:    1254
 k-point 22 :   0.1667 0.4545-0.0000  plane waves:    1264
 k-point 23 :   0.3333 0.4545 0.0000  plane waves:    1265
 k-point 24 :   0.5000 0.4545-0.0000  plane waves:    1262
 k-point 25 :  -0.0000-0.0000 0.1667  plane waves:    1264
 k-point 26 :   0.1667-0.0000 0.1667  plane waves:    1276
 k-point 27 :   0.3333-0.0000 0.1667  plane waves:    1284
 k-point 28 :   0.5000-0.0000 0.1667  plane waves:    1284
 k-point 29 :  -0.3333-0.0000 0.1667  plane waves:    1284
 k-point 30 :  -0.1667 0.0000 0.1667  plane waves:    1276
 k-point 31 :   0.0000 0.0909 0.1667  plane waves:    1280
 k-point 32 :   0.1667 0.0909 0.1667  plane waves:    1276
 k-point 33 :   0.3333 0.0909 0.1667  plane waves:    1273
 k-point 34 :   0.5000 0.0909 0.1667  plane waves:    1282
 k-point 35 :  -0.3333 0.0909 0.1667  plane waves:    1273
 k-point 36 :  -0.1667 0.0909 0.1667  plane waves:    1277
 k-point 37 :  -0.0000 0.1818 0.1667  plane waves:    1273
 k-point 38 :   0.1667 0.1818 0.1667  plane waves:    1278
 k-point 39 :   0.3333 0.1818 0.1667  plane waves:    1274
 k-point 40 :   0.5000 0.1818 0.1667  plane waves:    1264
 k-point 41 :  -0.3333 0.1818 0.1667  plane waves:    1274
 k-point 42 :  -0.1667 0.1818 0.1667  plane waves:    1279
 k-point 43 :  -0.0000 0.2727 0.1667  plane waves:    1266
 k-point 44 :   0.1667 0.2727 0.1667  plane waves:    1268
 k-point 45 :   0.3333 0.2727 0.1667  plane waves:    1268
 k-point 46 :   0.5000 0.2727 0.1667  plane waves:    1262
 k-point 47 :  -0.3333 0.2727 0.1667  plane waves:    1268
 k-point 48 :  -0.1667 0.2727 0.1667  plane waves:    1268
 k-point 49 :  -0.0000 0.3636 0.1667  plane waves:    1252
 k-point 50 :   0.1667 0.3636 0.1667  plane waves:    1258
 k-point 51 :   0.3333 0.3636 0.1667  plane waves:    1266
 k-point 52 :   0.5000 0.3636 0.1667  plane waves:    1258
 k-point 53 :  -0.3333 0.3636 0.1667  plane waves:    1267
 k-point 54 :  -0.1667 0.3636 0.1667  plane waves:    1256
 k-point 55 :  -0.0000 0.4545 0.1667  plane waves:    1259
 k-point 56 :   0.1667 0.4545 0.1667  plane waves:    1264
 k-point 57 :   0.3333 0.4545 0.1667  plane waves:    1260
 k-point 58 :   0.5000 0.4545 0.1667  plane waves:    1266
 k-point 59 :  -0.3333 0.4545 0.1667  plane waves:    1259
 k-point 60 :  -0.1667 0.4545 0.1667  plane waves:    1263
 k-point 61 :   0.0000 0.0000 0.3333  plane waves:    1274
 k-point 62 :   0.1667-0.0000 0.3333  plane waves:    1263
 k-point 63 :   0.3333-0.0000 0.3333  plane waves:    1276
 k-point 64 :   0.5000 0.0000 0.3333  plane waves:    1282
 k-point 65 :  -0.3333 0.0000 0.3333  plane waves:    1278
 k-point 66 :  -0.1667-0.0000 0.3333  plane waves:    1265
 k-point 67 :  -0.0000 0.0909 0.3333  plane waves:    1262
 k-point 68 :   0.1667 0.0909 0.3333  plane waves:    1270
 k-point 69 :   0.3333 0.0909 0.3333  plane waves:    1273
 k-point 70 :   0.5000 0.0909 0.3333  plane waves:    1278
 k-point 71 :  -0.3333 0.0909 0.3333  plane waves:    1274
 k-point 72 :  -0.1667 0.0909 0.3333  plane waves:    1270
 k-point 73 :   0.0000 0.1818 0.3333  plane waves:    1269
 k-point 74 :   0.1667 0.1818 0.3333  plane waves:    1267
 k-point 75 :   0.3333 0.1818 0.3333  plane waves:    1272
 k-point 76 :   0.5000 0.1818 0.3333  plane waves:    1276
 k-point 77 :  -0.3333 0.1818 0.3333  plane waves:    1271
 k-point 78 :  -0.1667 0.1818 0.3333  plane waves:    1268
 k-point 79 :  -0.0000 0.2727 0.3333  plane waves:    1260
 k-point 80 :   0.1667 0.2727 0.3333  plane waves:    1270
 k-point 81 :   0.3333 0.2727 0.3333  plane waves:    1265
 k-point 82 :   0.5000 0.2727 0.3333  plane waves:    1277
 k-point 83 :  -0.3333 0.2727 0.3333  plane waves:    1268
 k-point 84 :  -0.1667 0.2727 0.3333  plane waves:    1271
 k-point 85 :   0.0000 0.3636 0.3333  plane waves:    1265
 k-point 86 :   0.1667 0.3636 0.3333  plane waves:    1262
 k-point 87 :   0.3333 0.3636 0.3333  plane waves:    1268
 k-point 88 :   0.5000 0.3636 0.3333  plane waves:    1268
 k-point 89 :  -0.3333 0.3636 0.3333  plane waves:    1268
 k-point 90 :  -0.1667 0.3636 0.3333  plane waves:    1261
 k-point 91 :  -0.0000 0.4545 0.3333  plane waves:    1266
 k-point 92 :   0.1667 0.4545 0.3333  plane waves:    1262
 k-point 93 :   0.3333 0.4545 0.3333  plane waves:    1263
 k-point 94 :   0.5000 0.4545 0.3333  plane waves:    1273
 k-point 95 :  -0.3333 0.4545 0.3333  plane waves:    1263
 k-point 96 :  -0.1667 0.4545 0.3333  plane waves:    1262
 k-point 97 :   0.0000-0.0000 0.5000  plane waves:    1268
 k-point 98 :   0.1667 0.0000 0.5000  plane waves:    1264
 k-point 99 :   0.3333-0.0000 0.5000  plane waves:    1282
 k-point ** :   0.5000-0.0000 0.5000  plane waves:    1280
 k-point ** :  -0.0000 0.0909 0.5000  plane waves:    1254
 k-point ** :   0.1667 0.0909 0.5000  plane waves:    1268
 k-point ** :   0.3333 0.0909 0.5000  plane waves:    1276
 k-point ** :   0.5000 0.0909 0.5000  plane waves:    1276
 k-point ** :   0.0000 0.1818 0.5000  plane waves:    1260
 k-point ** :   0.1667 0.1818 0.5000  plane waves:    1273
 k-point ** :   0.3333 0.1818 0.5000  plane waves:    1270
 k-point ** :   0.5000 0.1818 0.5000  plane waves:    1278
 k-point ** :  -0.0000 0.2727 0.5000  plane waves:    1260
 k-point ** :   0.1667 0.2727 0.5000  plane waves:    1273
 k-point ** :   0.3333 0.2727 0.5000  plane waves:    1277
 k-point ** :   0.5000 0.2727 0.5000  plane waves:    1278
 k-point ** :   0.0000 0.3636 0.5000  plane waves:    1266
 k-point ** :   0.1667 0.3636 0.5000  plane waves:    1273
 k-point ** :   0.3333 0.3636 0.5000  plane waves:    1263
 k-point ** :   0.5000 0.3636 0.5000  plane waves:    1272
 k-point ** :   0.0000 0.4545 0.5000  plane waves:    1266
 k-point ** :   0.1667 0.4545 0.5000  plane waves:    1261
 k-point ** :   0.3333 0.4545 0.5000  plane waves:    1260
 k-point ** :   0.5000 0.4545 0.5000  plane waves:    1264

 maximum and minimum number of plane-waves per node :       336      306

 maximum number of plane-waves:      1288
 maximum index in each direction: 
   IXMAX=    8   IYMAX=    4   IZMAX=    8
   IXMIN=   -8   IYMIN=   -5   IZMIN=   -8


 parallel 3D FFT for wavefunctions:
    minimum data exchange during FFTs selected (reduces bandwidth)
 parallel 3D FFT for charge:
    minimum data exchange during FFTs selected (reduces bandwidth)


 total amount of memory used by VASP MPI-rank0    46970. kBytes
=======================================================================

   base      :      30000. kBytes
   nonl-proj :      11505. kBytes
   fftplans  :        230. kBytes
   grid      :        366. kBytes
   one-center:         31. kBytes
   wavefun   :       4838. kBytes
 
     INWAV:  cpu time    0.0000: real time    0.0000
 Broyden mixing: mesh for mixing (old mesh)
   NGX = 15   NGY =  9   NGZ = 17
  (NGX  = 48   NGY  = 28   NGZ  = 56)
  gives a total of   2295 points

 initial charge density was supplied:
 charge density of overlapping atoms calculated
 number of electron      42.0000000 magnetization 
 keeping initial charge density in first step


--------------------------------------------------------------------------------------------------------


 Maximum index for augmentation-charges          375 (set IRDMAX)


--------------------------------------------------------------------------------------------------------


 First call to EWALD:  gamma=   0.430
 Maximum number of real-space cells 2x 4x 2
 Maximum number of reciprocal cells 3x 2x 3

    FEWALD:  cpu time    0.0018: real time    0.0018


--------------------------------------- Iteration      1(   1)  ---------------------------------------


    POTLOK:  cpu time    0.0270: real time    0.0277
    SETDIJ:  cpu time    0.0035: real time    0.0036
     EDDAV:  cpu time    2.9787: real time    2.9943
       DOS:  cpu time    0.0044: real time    0.0044
    --------------------------------------------
      LOOP:  cpu time    3.0136: real time    3.0299

 eigenvalue-minimisations  :  6720
 total energy-change (2. order) : 0.3772577E+03  (-0.1737319E+04)
 number of electron      42.0000000 magnetization 
 augmentation part       42.0000000 magnetization 

 Free energy of the ion-electron system (eV)
  ---------------------------------------------------
  alpha Z        PSCENC =       112.32995743
  Ewald energy   TEWEN  =     -1968.82179816
  -Hartree energ DENC   =     -1425.47338582
  -exchange      EXHF   =         0.00000000
  -V(xc)+E(xc)   XCENC  =       143.16919021
  PAW double counting   =      2828.22046682    -2941.47506522
  entropy T*S    EENTRO =        -0.00900835
  eigenvalues    EBANDS =       273.54911195
  atomic energy  EATOM  =      3355.76825234
  Solvation  Ediel_sol  =         0.00000000
  ---------------------------------------------------
  free energy    TOTEN  =       377.25772120 eV

  energy without entropy =      377.26672955  energy(sigma->0) =      377.26222537


--------------------------------------------------------------------------------------------------------




--------------------------------------- Iteration      1(   2)  ---------------------------------------


     EDDAV:  cpu time    3.1782: real time    3.1950
       DOS:  cpu time    0.0044: real time    0.0044
    --------------------------------------------
      LOOP:  cpu time    3.1826: real time    3.1995

 eigenvalue-minimisations  :  7352
 total energy-change (2. order) :-0.3786257E+03  (-0.3479623E+03)
 number of electron      42.0000000 magnetization 
 augmentation part       42.0000000 magnetization 

 Free energy of the ion-electron system (eV)
  ---------------------------------------------------
  alpha Z        PSCENC =       112.32995743
  Ewald energy   TEWEN  =     -1968.82179816
  -Hartree energ DENC   =     -1425.47338582
  -exchange      EXHF   =         0.00000000
  -V(xc)+E(xc)   XCENC  =       143.16919021
  PAW double counting   =      2828.22046682    -2941.47506522
  entropy T*S    EENTRO =        -0.02605211
  eigenvalues    EBANDS =      -105.05952791
  atomic energy  EATOM  =      3355.76825234
  Solvation  Ediel_sol  =         0.00000000
  ---------------------------------------------------
  free energy    TOTEN  =        -1.36796242 eV

  energy without entropy =       -1.34191031  energy(sigma->0) =       -1.35493636


--------------------------------------------------------------------------------------------------------




--------------------------------------- Iteration      1(   3)  ---------------------------------------


     EDDAV:  cpu time    3.2030: real time    3.2197
       DOS:  cpu time    0.0048: real time    0.0048
    --------------------------------------------
      LOOP:  cpu time    3.2078: real time    3.2245

 eigenvalue-minimisations  :  7432
 total energy-change (2. order) :-0.5118868E+02  (-0.4986955E+02)
 number of electron      42.0000000 magnetization 
 augmentation part       42.0000000 magnetization 

 Free energy of the ion-electron system (eV)
  ---------------------------------------------------
  alpha Z        PSCENC =       112.32995743
  Ewald energy   TEWEN  =     -1968.82179816
  -Hartree energ DENC   =     -1425.47338582
  -exchange      EXHF   =         0.00000000
  -V(xc)+E(xc)   XCENC  =       143.16919021
  PAW double counting   =      2828.22046682    -2941.47506522
  entropy T*S    EENTRO =        -0.08308988
  eigenvalues    EBANDS =      -156.19116649
  atomic energy  EATOM  =      3355.76825234
  Solvation  Ediel_sol  =         0.00000000
  ---------------------------------------------------
  free energy    TOTEN  =       -52.55663877 eV

  energy without entropy =      -52.47354889  energy(sigma->0) =      -52.51509383


--------------------------------------------------------------------------------------------------------




--------------------------------------- Iteration      1(   4)  ---------------------------------------


     EDDAV:  cpu time    3.1890: real time    3.2061
       DOS:  cpu time    0.0048: real time    0.0048
    --------------------------------------------
      LOOP:  cpu time    3.1938: real time    3.2109

 eigenvalue-minimisations  :  7412
 total energy-change (2. order) :-0.1470154E+01  (-0.1463873E+01)
 number of electron      42.0000000 magnetization 
 augmentation part       42.0000000 magnetization 

 Free energy of the ion-electron system (eV)
  ---------------------------------------------------
  alpha Z        PSCENC =       112.32995743
  Ewald energy   TEWEN  =     -1968.82179816
  -Hartree energ DENC   =     -1425.47338582
  -exchange      EXHF   =         0.00000000
  -V(xc)+E(xc)   XCENC  =       143.16919021
  PAW double counting   =      2828.22046682    -2941.47506522
  entropy T*S    EENTRO =        -0.08895910
  eigenvalues    EBANDS =      -157.65545147
  atomic energy  EATOM  =      3355.76825234
  Solvation  Ediel_sol  =         0.00000000
  ---------------------------------------------------
  free energy    TOTEN  =       -54.02679297 eV

  energy without entropy =      -53.93783387  energy(sigma->0) =      -53.98231342


--------------------------------------------------------------------------------------------------------




--------------------------------------- Iteration      1(   5)  ---------------------------------------


     EDDAV:  cpu time    3.5460: real time    3.5659
       DOS:  cpu time    0.0045: real time    0.0045
    CHARGE:  cpu time    0.2115: real time    0.2125
    MIXING:  cpu time    0.0004: real time    0.0004
    --------------------------------------------
      LOOP:  cpu time    3.7624: real time    3.7833

 eigenvalue-minimisations  :  8416
 total energy-change (2. order) :-0.4642021E-01  (-0.4640449E-01)
 number of electron      42.0000007 magnetization 
 augmentation part       10.7549487 magnetization 

 Broyden mixing:
  rms(total) = 0.37088E+01    rms(broyden)= 0.37073E+01
  rms(prec ) = 0.63566E+01
  weight for this iteration     100.00

 Free energy of the ion-electron system (eV)
  ---------------------------------------------------
  alpha Z        PSCENC =       112.32995743
  Ewald energy   TEWEN  =     -1968.82179816
  -Hartree energ DENC   =     -1425.47338582
  -exchange      EXHF   =         0.00000000
  -V(xc)+E(xc)   XCENC  =       143.16919021
  PAW double counting   =      2828.22046682    -2941.47506522
  entropy T*S    EENTRO =        -0.08914754
  eigenvalues    EBANDS =      -157.70168324
  atomic energy  EATOM  =      3355.76825234
  Solvation  Ediel_sol  =         0.00000000
  ---------------------------------------------------
  free energy    TOTEN  =       -54.07321318 eV

  energy without entropy =      -53.98406564  energy(sigma->0) =      -54.02863941


--------------------------------------------------------------------------------------------------------




--------------------------------------- Iteration      1(   6)  ---------------------------------------


    POTLOK:  cpu time    0.0098: real time    0.0101
    SETDIJ:  cpu time    0.0036: real time    0.0036
     EDDAV:  cpu time    4.0659: real time    4.0862
       DOS:  cpu time    0.0048: real time    0.0048
    CHARGE:  cpu time    0.2095: real time    0.2104
    MIXING:  cpu time    0.0004: real time    0.0004
    --------------------------------------------
      LOOP:  cpu time    4.2939: real time    4.3154

 eigenvalue-minimisations  :  9448
 total energy-change (2. order) :-0.1781567E+02  (-0.1281347E+02)
 number of electron      41.9999982 magnetization 
 augmentation part       16.1201849 magnetization 

 Broyden mixing:
  rms(total) = 0.65946E+01    rms(broyden)= 0.65935E+01
  rms(prec ) = 0.10229E+02
  weight for this iteration     100.00

 eigenvalues of (default mixing * dielectric matrix)
  average eigenvalue GAMMA=   0.2291
  0.2291

 Free energy of the ion-electron system (eV)
  ---------------------------------------------------
  alpha Z        PSCENC =       112.32995743
  Ewald energy   TEWEN  =     -1968.82179816
  -Hartree energ DENC   =     -1389.47765309
  -exchange      EXHF   =         0.00000000
  -V(xc)+E(xc)   XCENC  =       144.67877371
  PAW double counting   =      3202.96746163    -3291.41178483
  entropy T*S    EENTRO =        -0.01973437
  eigenvalues    EBANDS =      -237.90235749
  atomic energy  EATOM  =      3355.76825234
  Solvation  Ediel_sol  =         0.00000000
  ---------------------------------------------------
  free energy    TOTEN  =       -71.88888283 eV

  energy without entropy =      -71.86914846  energy(sigma->0) =      -71.87901564


--------------------------------------------------------------------------------------------------------




--------------------------------------- Iteration      1(   7)  ---------------------------------------


    POTLOK:  cpu time    0.0097: real time    0.0099
    SETDIJ:  cpu time    0.0036: real time    0.0036
     EDDAV:  cpu time    3.6988: real time    3.7176
       DOS:  cpu time    0.0046: real time    0.0047
    CHARGE:  cpu time    0.2098: real time    0.2106
    MIXING:  cpu time    0.0004: real time    0.0004
    --------------------------------------------
      LOOP:  cpu time    3.9270: real time    3.9469

 eigenvalue-minimisations  :  8776
 total energy-change (2. order) : 0.3324515E+02  (-0.5224315E+01)
 number of electron      41.9999997 magnetization 
 augmentation part       12.2440855 magnetization 

 Broyden mixing:
  rms(total) = 0.59255E+00    rms(broyden)= 0.58915E+00
  rms(prec ) = 0.82363E+00
  weight for this iteration     100.00

 eigenvalues of (default mixing * dielectric matrix)
  average eigenvalue GAMMA=   0.7543
  0.3470  1.1617

 Free energy of the ion-electron system (eV)
  ---------------------------------------------------
  alpha Z        PSCENC =       112.32995743
  Ewald energy   TEWEN  =     -1968.82179816
  -Hartree energ DENC   =     -1417.24368427
  -exchange      EXHF   =         0.00000000
  -V(xc)+E(xc)   XCENC  =       144.38090175
  PAW double counting   =      3377.53851561    -3487.78764264
  entropy T*S    EENTRO =        -0.04921198
  eigenvalues    EBANDS =      -154.75902751
  atomic energy  EATOM  =      3355.76825234
  Solvation  Ediel_sol  =         0.00000000
  ---------------------------------------------------
  free energy    TOTEN  =       -38.64373742 eV

  energy without entropy =      -38.59452544  energy(sigma->0) =      -38.61913143


--------------------------------------------------------------------------------------------------------




--------------------------------------- Iteration      1(   8)  ---------------------------------------


    POTLOK:  cpu time    0.0097: real time    0.0099
    SETDIJ:  cpu time    0.0033: real time    0.0033
     EDDAV:  cpu time    3.1150: real time    3.1320
       DOS:  cpu time    0.0047: real time    0.0047
    CHARGE:  cpu time    0.2093: real time    0.2103
    MIXING:  cpu time    0.0005: real time    0.0005
    --------------------------------------------
      LOOP:  cpu time    3.3424: real time    3.3606

 eigenvalue-minimisations  :  7100
 total energy-change (2. order) :-0.2987281E+00  (-0.6190149E+00)
 number of electron      41.9999995 magnetization 
 augmentation part       12.5143724 magnetization 

 Broyden mixing:
  rms(total) = 0.21146E+00    rms(broyden)= 0.21133E+00
  rms(prec ) = 0.26619E+00
  weight for this iteration     100.00

 eigenvalues of (default mixing * dielectric matrix)
  average eigenvalue GAMMA=   0.9712
  0.3441  1.0245  1.5450

 Free energy of the ion-electron system (eV)
  ---------------------------------------------------
  alpha Z        PSCENC =       112.32995743
  Ewald energy   TEWEN  =     -1968.82179816
  -Hartree energ DENC   =     -1406.05955035
  -exchange      EXHF   =         0.00000000
  -V(xc)+E(xc)   XCENC  =       143.84233362
  PAW double counting   =      3591.39160041    -3702.83385590
  entropy T*S    EENTRO =        -0.04783628
  eigenvalues    EBANDS =      -164.51156860
  atomic energy  EATOM  =      3355.76825234
  Solvation  Ediel_sol  =         0.00000000
  ---------------------------------------------------
  free energy    TOTEN  =       -38.94246549 eV

  energy without entropy =      -38.89462921  energy(sigma->0) =      -38.91854735


--------------------------------------------------------------------------------------------------------




--------------------------------------- Iteration      1(   9)  ---------------------------------------


    POTLOK:  cpu time    0.0097: real time    0.0100
    SETDIJ:  cpu time    0.0035: real time    0.0035
     EDDAV:  cpu time    3.6577: real time    3.6777
       DOS:  cpu time    0.0048: real time    0.0048
    CHARGE:  cpu time    0.2091: real time    0.2100
    MIXING:  cpu time    0.0005: real time    0.0005
    --------------------------------------------
      LOOP:  cpu time    3.8853: real time    3.9064

 eigenvalue-minimisations  :  8688
 total energy-change (2. order) : 0.4689152E-04  (-0.1475040E-01)
 number of electron      41.9999996 magnetization 
 augmentation part       12.4327034 magnetization 

 Broyden mixing:
  rms(total) = 0.14421E+00    rms(broyden)= 0.14418E+00
  rms(prec ) = 0.19146E+00
  weight for this iteration     100.00

 eigenvalues of (default mixing * dielectric matrix)
  average eigenvalue GAMMA=   1.1844
  2.4826  0.3432  0.9559  0.9559

 Free energy of the ion-electron system (eV)
  ---------------------------------------------------
  alpha Z        PSCENC =       112.32995743
  Ewald energy   TEWEN  =     -1968.82179816
  -Hartree energ DENC   =     -1407.45326635
  -exchange      EXHF   =         0.00000000
  -V(xc)+E(xc)   XCENC  =       143.85043306
  PAW double counting   =      3727.58355162    -3840.46263640
  entropy T*S    EENTRO =        -0.04805761
  eigenvalues    EBANDS =      -161.68885453
  atomic energy  EATOM  =      3355.76825234
  Solvation  Ediel_sol  =         0.00000000
  ---------------------------------------------------
  free energy    TOTEN  =       -38.94241860 eV

  energy without entropy =      -38.89436099  energy(sigma->0) =      -38.91838980


--------------------------------------------------------------------------------------------------------




--------------------------------------- Iteration      1(  10)  ---------------------------------------


    POTLOK:  cpu time    0.0097: real time    0.0100
    SETDIJ:  cpu time    0.0032: real time    0.0033
     EDDAV:  cpu time    3.6777: real time    3.6963
       DOS:  cpu time    0.0048: real time    0.0049
    CHARGE:  cpu time    0.2082: real time    0.2091
    MIXING:  cpu time    0.0005: real time    0.0005
    --------------------------------------------
      LOOP:  cpu time    3.9043: real time    3.9240

 eigenvalue-minimisations  :  8704
 total energy-change (2. order) :-0.1218556E-02  (-0.2800772E-02)
 number of electron      41.9999995 magnetization 
 augmentation part       12.5264476 magnetization 

 Broyden mixing:
  rms(total) = 0.58498E-01    rms(broyden)= 0.58483E-01
  rms(prec ) = 0.11590E+00
  weight for this iteration     100.00

 eigenvalues of (default mixing * dielectric matrix)
  average eigenvalue GAMMA=   1.1845
  2.4035  0.3431  1.4173  0.8792  0.8792

 Free energy of the ion-electron system (eV)
  ---------------------------------------------------
  alpha Z        PSCENC =       112.32995743
  Ewald energy   TEWEN  =     -1968.82179816
  -Hartree energ DENC   =     -1407.37599301
  -exchange      EXHF   =         0.00000000
  -V(xc)+E(xc)   XCENC  =       143.85533087
  PAW double counting   =      3872.30831222    -3985.88213684
  entropy T*S    EENTRO =        -0.04716175
  eigenvalues    EBANDS =      -161.07840025
  atomic energy  EATOM  =      3355.76825234
  Solvation  Ediel_sol  =         0.00000000
  ---------------------------------------------------
  free energy    TOTEN  =       -38.94363716 eV

  energy without entropy =      -38.89647541  energy(sigma->0) =      -38.92005629


--------------------------------------------------------------------------------------------------------




--------------------------------------- Iteration      1(  11)  ---------------------------------------


    POTLOK:  cpu time    0.0100: real time    0.0102
    SETDIJ:  cpu time    0.0034: real time    0.0035
     EDDAV:  cpu time    3.7789: real time    3.7982
       DOS:  cpu time    0.0048: real time    0.0049
    CHARGE:  cpu time    0.2099: real time    0.2108
    MIXING:  cpu time    0.0006: real time    0.0006
    --------------------------------------------
      LOOP:  cpu time    4.0077: real time    4.0281

 eigenvalue-minimisations  :  9024
 total energy-change (2. order) : 0.3481382E-02  (-0.1056051E-02)
 number of electron      41.9999995 magnetization 
 augmentation part       12.4692701 magnetization 

 Broyden mixing:
  rms(total) = 0.12304E-01    rms(broyden)= 0.12270E-01
  rms(prec ) = 0.23022E-01
  weight for this iteration     100.00

 eigenvalues of (default mixing * dielectric matrix)
  average eigenvalue GAMMA=   1.1913
  2.4671  0.3431  1.7159  0.9583  0.9583  0.7055

 Free energy of the ion-electron system (eV)
  ---------------------------------------------------
  alpha Z        PSCENC =       112.32995743
  Ewald energy   TEWEN  =     -1968.82179816
  -Hartree energ DENC   =     -1408.70316416
  -exchange      EXHF   =         0.00000000
  -V(xc)+E(xc)   XCENC  =       143.90211046
  PAW double counting   =      3865.71548115    -3979.42083039
  entropy T*S    EENTRO =        -0.04779035
  eigenvalues    EBANDS =      -159.66237411
  atomic energy  EATOM  =      3355.76825234
  Solvation  Ediel_sol  =         0.00000000
  ---------------------------------------------------
  free energy    TOTEN  =       -38.94015578 eV

  energy without entropy =      -38.89236543  energy(sigma->0) =      -38.91626060


--------------------------------------------------------------------------------------------------------




--------------------------------------- Iteration      1(  12)  ---------------------------------------


    POTLOK:  cpu time    0.0099: real time    0.0101
    SETDIJ:  cpu time    0.0033: real time    0.0033
     EDDAV:  cpu time    4.2121: real time    4.2347
       DOS:  cpu time    0.0048: real time    0.0048
    CHARGE:  cpu time    0.2097: real time    0.2107
    MIXING:  cpu time    0.0006: real time    0.0006
    --------------------------------------------
      LOOP:  cpu time    4.4403: real time    4.4642

 eigenvalue-minimisations  : 10204
 total energy-change (2. order) : 0.2564536E-04  (-0.9228647E-04)
 number of electron      41.9999995 magnetization 
 augmentation part       12.4758891 magnetization 

 Broyden mixing:
  rms(total) = 0.64316E-02    rms(broyden)= 0.64297E-02
  rms(prec ) = 0.98019E-02
  weight for this iteration     100.00

 eigenvalues of (default mixing * dielectric matrix)
  average eigenvalue GAMMA=   1.1505
  2.4980  1.9251  0.3431  0.9757  0.9757  0.7831  0.5529

 Free energy of the ion-electron system (eV)
  ---------------------------------------------------
  alpha Z        PSCENC =       112.32995743
  Ewald energy   TEWEN  =     -1968.82179816
  -Hartree energ DENC   =     -1408.98575944
  -exchange      EXHF   =         0.00000000
  -V(xc)+E(xc)   XCENC  =       143.91943068
  PAW double counting   =      3868.90038961    -3982.57773283
  entropy T*S    EENTRO =        -0.04776076
  eigenvalues    EBANDS =      -159.42510901
  atomic energy  EATOM  =      3355.76825234
  Solvation  Ediel_sol  =         0.00000000
  ---------------------------------------------------
  free energy    TOTEN  =       -38.94013013 eV

  energy without entropy =      -38.89236937  energy(sigma->0) =      -38.91624975


--------------------------------------------------------------------------------------------------------




--------------------------------------- Iteration      1(  13)  ---------------------------------------


    POTLOK:  cpu time    0.0098: real time    0.0101
    SETDIJ:  cpu time    0.0032: real time    0.0032
     EDDAV:  cpu time    4.2409: real time    4.2627
       DOS:  cpu time    0.0046: real time    0.0046
    CHARGE:  cpu time    0.2099: real time    0.2108
    MIXING:  cpu time    0.0007: real time    0.0007
    --------------------------------------------
      LOOP:  cpu time    4.4691: real time    4.4920

 eigenvalue-minimisations  : 10236
 total energy-change (2. order) :-0.3274727E-04  (-0.2130705E-04)
 number of electron      41.9999995 magnetization 
 augmentation part       12.4804806 magnetization 

 Broyden mixing:
  rms(total) = 0.63776E-02    rms(broyden)= 0.63758E-02
  rms(prec ) = 0.10601E-01
  weight for this iteration     100.00

 eigenvalues of (default mixing * dielectric matrix)
  average eigenvalue GAMMA=   1.2694
  2.7706  2.5296  0.3431  1.1993  1.1993  0.8139  0.8139  0.4856

 Free energy of the ion-electron system (eV)
  ---------------------------------------------------
  alpha Z        PSCENC =       112.32995743
  Ewald energy   TEWEN  =     -1968.82179816
  -Hartree energ DENC   =     -1409.07500943
  -exchange      EXHF   =         0.00000000
  -V(xc)+E(xc)   XCENC  =       143.92691997
  PAW double counting   =      3870.94888248    -3984.58797777
  entropy T*S    EENTRO =        -0.04766847
  eigenvalues    EBANDS =      -159.38172126
  atomic energy  EATOM  =      3355.76825234
  Solvation  Ediel_sol  =         0.00000000
  ---------------------------------------------------
  free energy    TOTEN  =       -38.94016288 eV

  energy without entropy =      -38.89249441  energy(sigma->0) =      -38.91632864


--------------------------------------------------------------------------------------------------------




--------------------------------------- Iteration      1(  14)  ---------------------------------------


    POTLOK:  cpu time    0.0098: real time    0.0100
    SETDIJ:  cpu time    0.0034: real time    0.0035
     EDDAV:  cpu time    3.9172: real time    3.9372
       DOS:  cpu time    0.0046: real time    0.0046
    CHARGE:  cpu time    0.2093: real time    0.2102
    MIXING:  cpu time    0.0007: real time    0.0007
    --------------------------------------------
      LOOP:  cpu time    4.1450: real time    4.1661

 eigenvalue-minimisations  :  9348
 total energy-change (2. order) : 0.9662659E-05  (-0.1005306E-04)
 number of electron      41.9999995 magnetization 
 augmentation part       12.4753596 magnetization 

 Broyden mixing:
  rms(total) = 0.22211E-02    rms(broyden)= 0.22192E-02
  rms(prec ) = 0.42967E-02
  weight for this iteration     100.00

 eigenvalues of (default mixing * dielectric matrix)
  average eigenvalue GAMMA=   1.2248
  2.6800  2.4531  0.3431  1.3412  1.1748  0.9104  0.9104  0.4851  0.7247

 Free energy of the ion-electron system (eV)
  ---------------------------------------------------
  alpha Z        PSCENC =       112.32995743
  Ewald energy   TEWEN  =     -1968.82179816
  -Hartree energ DENC   =     -1409.16616303
  -exchange      EXHF   =         0.00000000
  -V(xc)+E(xc)   XCENC  =       143.92926560
  PAW double counting   =      3871.43690164    -3985.05413485
  entropy T*S    EENTRO =        -0.04772387
  eigenvalues    EBANDS =      -159.31471032
  atomic energy  EATOM  =      3355.76825234
  Solvation  Ediel_sol  =         0.00000000
  ---------------------------------------------------
  free energy    TOTEN  =       -38.94015322 eV

  energy without entropy =      -38.89242934  energy(sigma->0) =      -38.91629128


--------------------------------------------------------------------------------------------------------




--------------------------------------- Iteration      1(  15)  ---------------------------------------


    POTLOK:  cpu time    0.0098: real time    0.0100
    SETDIJ:  cpu time    0.0033: real time    0.0033
     EDDAV:  cpu time    4.0088: real time    4.0301
       DOS:  cpu time    0.0048: real time    0.0048
    CHARGE:  cpu time    0.2089: real time    0.2100
    MIXING:  cpu time    0.0008: real time    0.0008
    --------------------------------------------
      LOOP:  cpu time    4.2364: real time    4.2591

 eigenvalue-minimisations  :  9668
 total energy-change (2. order) : 0.4473311E-05  (-0.1997019E-05)
 number of electron      41.9999995 magnetization 
 augmentation part       12.4771106 magnetization 

 Broyden mixing:
  rms(total) = 0.42524E-03    rms(broyden)= 0.42490E-03
  rms(prec ) = 0.74500E-03
  weight for this iteration     100.00

 eigenvalues of (default mixing * dielectric matrix)
  average eigenvalue GAMMA=   1.2759
  2.8937  2.4880  0.3431  1.4788  1.2221  1.2221  0.4823  0.9410  0.9410  0.7469

 Free energy of the ion-electron system (eV)
  ---------------------------------------------------
  alpha Z        PSCENC =       112.32995743
  Ewald energy   TEWEN  =     -1968.82179816
  -Hartree energ DENC   =     -1409.12161353
  -exchange      EXHF   =         0.00000000
  -V(xc)+E(xc)   XCENC  =       143.92748976
  PAW double counting   =      3871.75437601    -3985.36600334
  entropy T*S    EENTRO =        -0.04771277
  eigenvalues    EBANDS =      -159.36309649
[...]
      4     -15.2348      2.00000
      5      -3.6261      2.00000
      6      -3.6261      2.00000
      7      -2.9763      2.00000
      8      -2.9763      2.00000
      9      -2.3070      2.00000
     10      -2.3070      2.00000
     11      -1.3978      2.00000
     12      -1.3978      2.00000
     13      -1.0201      2.00000
     14      -1.0201      2.00000
     15       0.8420      2.00000
     16       0.8420      2.00000
     17       1.6196      2.00000
     18       1.6196      2.00000
     19       1.9621      2.00000
     20       1.9621      2.00000
     21       2.3108      1.65690
     22       2.3108      1.65690
     23       4.2253      0.00000
     24       4.2253      0.00000
     25       4.7786      0.00000
     26       4.7786      0.00000
     27      13.3172      0.00000
     28      13.3172      0.00000

 k-point   113 :       0.0000    0.3636    0.5000
  band No.  band energies     occupation 
      1     -16.3291      2.00000
      2     -15.4481      2.00000
      3     -15.4031      2.00000
      4     -15.2041      2.00000
      5      -3.4761      2.00000
      6      -3.3768      2.00000
      7      -3.3627      2.00000
      8      -2.9730      2.00000
      9      -2.6474      2.00000
     10      -2.2572      2.00000
     11      -1.4073      2.00000
     12      -1.2279      2.00000
     13      -0.9627      2.00000
     14      -0.8880      2.00000
     15      -0.5008      2.00000
     16       1.0242      2.00000
     17       1.1113      2.00000
     18       1.6018      2.00000
     19       2.1486      1.99881
     20       2.1981      1.98896
     21       2.2705      1.87087
     22       2.3530      1.27425
     23       4.2253      0.00000
     24       4.4892      0.00000
     25       4.4985      0.00000
     26       4.6342      0.00000
     27      13.1403      0.00000
     28      15.4875      0.00000

 k-point   114 :       0.1667    0.3636    0.5000
  band No.  band energies     occupation 
      1     -16.2724      2.00000
      2     -15.4932      2.00000
      3     -15.4082      2.00000
      4     -15.2185      2.00000
      5      -3.6994      2.00000
      6      -3.6090      2.00000
      7      -3.2549      2.00000
      8      -2.9052      2.00000
      9      -2.3573      2.00000
     10      -2.2280      2.00000
     11      -1.4612      2.00000
     12      -1.2878      2.00000
     13      -0.9499      2.00000
     14      -0.9208      2.00000
     15      -0.1525      2.00000
     16       0.9295      2.00000
     17       1.1767      2.00000
     18       1.6226      2.00000
     19       1.9770      2.00000
     20       2.0364      2.00000
     21       2.3112      1.65392
     22       2.3144      1.62984
     23       4.1770      0.00000
     24       4.5065      0.00000
     25       4.5553      0.00000
     26       4.8149      0.00000
     27      13.1582      0.00000
     28      15.3051      0.00000

 k-point   115 :       0.3333    0.3636    0.5000
  band No.  band energies     occupation 
      1     -16.1144      2.00000
      2     -15.6623      2.00000
      3     -15.3695      2.00000
      4     -15.2580      2.00000
      5      -3.9818      2.00000
      6      -3.8677      2.00000
      7      -3.0703      2.00000
      8      -2.7461      2.00000
      9      -2.5088      2.00000
     10      -1.9466      2.00000
     11      -1.3721      2.00000
     12      -1.3693      2.00000
     13      -1.0400      2.00000
     14      -0.6283      2.00000
     15       0.2758      2.00000
     16       0.7371      2.00000
     17       1.3606      2.00000
     18       1.6310      2.00000
     19       1.7188      2.00000
     20       1.7792      2.00000
     21       2.1691      1.99683
     22       2.2594      1.90583
     23       4.2293      0.00000
     24       4.4794      0.00000
     25       4.7461      0.00000
     26       4.9967      0.00000
     27      13.2935      0.00000
     28      14.4247      0.00000

 k-point   116 :       0.5000    0.3636    0.5000
  band No.  band energies     occupation 
      1     -15.8923      2.00000
      2     -15.8923      2.00000
      3     -15.3139      2.00000
      4     -15.3139      2.00000
      5      -4.0322      2.00000
      6      -4.0322      2.00000
      7      -2.8460      2.00000
      8      -2.8460      2.00000
      9      -2.3096      2.00000
     10      -2.3096      2.00000
     11      -1.2436      2.00000
     12      -1.2436      2.00000
     13      -0.7831      2.00000
     14      -0.7831      2.00000
     15       0.5575      2.00000
     16       0.5575      2.00000
     17       1.5671      2.00000
     18       1.5671      2.00000
     19       1.6161      2.00000
     20       1.6161      2.00000
     21       2.1351      1.99940
     22       2.1351      1.99940
     23       4.3684      0.00000
     24       4.3684      0.00000
     25       4.9526      0.00000
     26       4.9526      0.00000
     27      13.6989      0.00000
     28      13.6989      0.00000

 k-point   117 :       0.0000    0.4545    0.5000
  band No.  band energies     occupation 
      1     -15.9275      2.00000
      2     -15.6188      2.00000
      3     -15.3399      2.00000
      4     -15.2707      2.00000
      5      -3.4863      2.00000
      6      -3.3946      2.00000
      7      -3.3604      2.00000
      8      -3.3248      2.00000
      9      -2.3242      2.00000
     10      -2.1833      2.00000
     11      -1.4503      2.00000
     12      -1.3339      2.00000
     13      -1.1924      2.00000
     14      -0.9838      2.00000
     15      -0.0091      2.00000
     16       0.5422      2.00000
     17       1.2820      2.00000
     18       1.6108      2.00000
     19       1.7888      2.00000
     20       1.9156      2.00000
     21       2.3917      0.84375
     22       2.4283      0.47479
     23       4.3981      0.00000
     24       4.4930      0.00000
     25       4.5032      0.00000
     26       4.5333      0.00000
     27      13.9000      0.00000
     28      14.8677      0.00000

 k-point   118 :       0.1667    0.4545    0.5000
  band No.  band energies     occupation 
      1     -15.8885      2.00000
      2     -15.5947      2.00000
      3     -15.3795      2.00000
      4     -15.2934      2.00000
      5      -3.8631      2.00000
      6      -3.7746      2.00000
      7      -3.1664      2.00000
      8      -3.0846      2.00000
      9      -2.1506      2.00000
     10      -1.9632      2.00000
     11      -1.4501      2.00000
     12      -1.2208      2.00000
     13      -1.1952      2.00000
     14      -1.0111      2.00000
     15       0.1130      2.00000
     16       0.5153      2.00000
     17       1.2816      2.00000
     18       1.5965      2.00000
     19       1.6946      2.00000
     20       1.8252      2.00000
     21       2.3086      1.67195
     22       2.3171      1.60913
     23       4.3750      0.00000
     24       4.4954      0.00000
     25       4.6443      0.00000
     26       4.7286      0.00000
     27      13.8781      0.00000
     28      14.7670      0.00000

 k-point   119 :       0.3333    0.4545    0.5000
  band No.  band energies     occupation 
      1     -15.7824      2.00000
      2     -15.5308      2.00000
      3     -15.4872      2.00000
      4     -15.3563      2.00000
      5      -4.2289      2.00000
      6      -4.1661      2.00000
      7      -2.9038      2.00000
      8      -2.7855      2.00000
      9      -2.2803      2.00000
     10      -1.9419      2.00000
     11      -1.3524      2.00000
     12      -1.2302      2.00000
     13      -0.8666      2.00000
     14      -0.7216      2.00000
     15       0.3600      2.00000
     16       0.4999      2.00000
     17       1.2822      2.00000
     18       1.4686      2.00000
     19       1.5595      2.00000
     20       1.6092      2.00000
     21       2.0809      1.99997
     22       2.1221      1.99970
     23       4.4337      0.00000
     24       4.5254      0.00000
     25       4.8985      0.00000
     26       4.9878      0.00000
     27      13.8824      0.00000
     28      14.4549      0.00000

 k-point   120 :       0.5000    0.4545    0.5000
  band No.  band energies     occupation 
      1     -15.6360      2.00000
      2     -15.6360      2.00000
      3     -15.4427      2.00000
      4     -15.4427      2.00000
      5      -4.3396      2.00000
      6      -4.3396      2.00000
      7      -2.5849      2.00000
      8      -2.5849      2.00000
      9      -2.3693      2.00000
     10      -2.3693      2.00000
     11      -1.2617      2.00000
     12      -1.2617      2.00000
     13      -0.5555      2.00000
     14      -0.5555      2.00000
     15       0.5170      2.00000
     16       0.5170      2.00000
     17       1.3245      2.00000
     18       1.3245      2.00000
     19       1.4701      2.00000
     20       1.4701      2.00000
     21       1.9899      2.00000
     22       1.9899      2.00000
     23       4.5059      0.00000
     24       4.5059      0.00000
     25       5.0629      0.00000
     26       5.0629      0.00000
     27      14.0697      0.00000
     28      14.0697      0.00000


--------------------------------------------------------------------------------------------------------


 soft charge-density along one line, spin component           1
         0         1         2         3         4         5         6         7         8         9
 total charge-density along one line
 
 pseudopotential strength for first ion, spin component:           1
 -5.761   0.120   0.000   0.000   0.000  -6.209   0.116   0.000
  0.120  -5.733  -0.000  -0.000  -0.000   0.116  -6.181  -0.000
  0.000  -0.000  -5.659  -0.012  -0.014   0.000  -0.000  -6.110
  0.000  -0.000  -0.012  -5.764  -0.118   0.000  -0.000  -0.011
  0.000  -0.000  -0.014  -0.118  -5.729   0.000  -0.000  -0.013
 -6.209   0.116   0.000   0.000   0.000  -6.605   0.112   0.000
  0.116  -6.181  -0.000  -0.000  -0.000   0.112  -6.577  -0.000
  0.000  -0.000  -6.110  -0.011  -0.013   0.000  -0.000  -6.509
  0.000  -0.000  -0.011  -6.212  -0.114   0.000  -0.000  -0.011
  0.000  -0.000  -0.013  -0.114  -6.178   0.000  -0.000  -0.013
  0.000  -0.000  -0.003   0.000  -0.000   0.000  -0.000  -0.004
  0.000  -0.000  -0.005   0.000  -0.000   0.000  -0.000  -0.006
 -0.000   0.000   0.000   0.000   0.000  -0.000   0.000   0.000
  0.000  -0.000   0.000   0.000  -0.000   0.000  -0.000   0.000
 -0.000   0.000  -0.000   0.000   0.000  -0.000   0.000  -0.000
 -0.000   0.000   0.000   0.000   0.000  -0.000   0.000   0.000
  0.000  -0.000   0.000   0.000   0.000   0.000  -0.000   0.000
 -0.000   0.000  -0.000   0.000   0.000  -0.000   0.000  -0.000
 total augmentation occupancy for first ion, spin component:           1
  6.601   1.710   0.000   0.000  -0.000  -5.483   0.036  -0.000  -0.000  -0.000   0.000  -0.000  -0.000  -0.000   0.000  -0.000
  1.710   5.739   0.000  -0.000  -0.000   0.018  -4.656  -0.000   0.000   0.000   0.000  -0.000   0.000   0.000  -0.000  -0.000
  0.000   0.000   5.925  -0.067  -0.187  -0.000  -0.000  -3.662  -0.122  -0.007   0.930  -0.231   0.000   0.000  -0.000  -0.000
  0.000  -0.000  -0.067   5.299  -1.515  -0.000   0.000  -0.122  -4.664  -0.132  -0.112   0.028  -0.000  -0.000   0.000   0.000
 -0.000  -0.000  -0.187  -1.515   7.034  -0.000   0.000  -0.009  -0.150  -5.452   0.004  -0.001  -0.000  -0.000   0.000   0.000
 -5.483   0.018  -0.000  -0.000  -0.000   5.858  -1.357   0.000   0.000   0.000  -0.000   0.000   0.000  -0.000  -0.000   0.000
  0.036  -4.656  -0.000   0.000   0.000  -1.357   5.042   0.000  -0.000  -0.000  -0.000   0.000  -0.000  -0.000   0.000   0.000
 -0.000  -0.000  -3.662  -0.122  -0.009   0.000   0.000   3.069   0.276   0.157  -0.970   0.239  -0.000  -0.000   0.000   0.000
 -0.000   0.000  -0.122  -4.664  -0.150   0.000  -0.000   0.276   5.392   1.411   0.117  -0.029   0.000   0.000  -0.000  -0.000
 -0.000   0.000  -0.007  -0.132  -5.452   0.000  -0.000   0.157   1.411   5.471  -0.004   0.001   0.000   0.000   0.000  -0.000
  0.000   0.000   0.930  -0.112   0.004  -0.000  -0.000  -0.970   0.117  -0.004   2.938  -0.569  -0.000  -0.000   0.000   0.000
 -0.000  -0.000  -0.231   0.028  -0.001   0.000   0.000   0.239  -0.029   0.001  -0.569   0.158   0.000   0.000  -0.000  -0.000
 -0.000   0.000   0.000  -0.000  -0.000   0.000  -0.000  -0.000   0.000   0.000  -0.000   0.000   0.588   0.000  -0.000  -0.094
 -0.000   0.000   0.000  -0.000  -0.000  -0.000  -0.000  -0.000   0.000   0.000  -0.000   0.000   0.000   0.451   0.009  -0.000
  0.000  -0.000  -0.000   0.000   0.000  -0.000   0.000   0.000  -0.000   0.000   0.000  -0.000  -0.000   0.009   0.587   0.000
 -0.000  -0.000  -0.000   0.000   0.000   0.000   0.000   0.000  -0.000  -0.000   0.000  -0.000  -0.094  -0.000   0.000   0.020
 -0.000  -0.000  -0.000   0.000   0.000   0.000   0.000   0.000  -0.000  -0.000   0.000  -0.000  -0.000  -0.066  -0.002   0.000
  0.000   0.000   0.000  -0.000   0.000   0.000  -0.000  -0.000   0.000  -0.000  -0.000   0.000   0.000  -0.002  -0.094  -0.000


------------------------ aborting loop because EDIFF is reached ----------------------------------------


    CHARGE:  cpu time    0.2098: real time    0.2107
    FORLOC:  cpu time    0.0005: real time    0.0005
    FORNL :  cpu time    0.3452: real time    0.3464
    STRESS:  cpu time    0.9256: real time    0.9296
    FORCOR:  cpu time    0.0098: real time    0.0098
    FORHAR:  cpu time    0.0027: real time    0.0027
    MIXING:  cpu time    0.0006: real time    0.0006
    OFIELD:  cpu time    0.0000: real time    0.0000

  FORCE on cell =-STRESS in cart. coord.  units (eV):
  Direction    XX          YY          ZZ          XY          YZ          ZX
  --------------------------------------------------------------------------------------
  Alpha Z   116.52940   116.52940   116.52940
  Ewald     103.13151   113.92821 -2201.51800    -0.00000     0.00000   158.87577
  Hartree  1024.15697  1032.02077  -648.38575    -0.00000    -0.00000   115.28491
  E(xc)    -210.35608  -210.35121  -211.23598     0.00000     0.00000     0.06036
  Local   -1938.38975 -1956.92070  2015.71769     0.00000     0.00000  -272.60685
  n-local   -94.12247   -94.11635   -98.54033     0.08579    -0.34624     0.29503
  augment   332.36703   332.35440   336.23967    -0.00000    -0.00000    -0.24800
  Kinetic   667.09516   666.97619   689.82323     0.01420     0.42495    -1.54225
  Fock        0.00000     0.00000     0.00000     0.00000     0.00000     0.00000
  -------------------------------------------------------------------------------------
  Total       0.41177     0.42070    -1.37007    -0.00000    -0.00000     0.11897
  in kB       9.80080    10.01325   -32.60962    -0.00000    -0.00000     2.83166
  external pressure =       -4.27 kB  Pullay stress =        0.00 kB


 VOLUME and BASIS-vectors are now :
 -----------------------------------------------------------------------------
  energy-cutoff  :      400.00
  volume of cell :       67.31
      direct lattice vectors                 reciprocal lattice vectors
     4.827314056 -0.000000000  0.331071951     0.206197081  0.000000000  0.013960514
    -0.000000000  2.793791009  0.000000000     0.000000000  0.357936580 -0.000000000
    -0.336368736  0.000000000  4.968173100    -0.013740679 -0.000000000  0.200350923

  length of vectors
     4.838653701  2.793791009  4.979546955     0.206669137  0.357936580  0.200821559


 FORCES acting on ions
    electron-ion (+dipol)            ewald-force                    non-local-force                 convergence-correction
 -----------------------------------------------------------------------------------------------
   0.216E-02 -.309E-06 -.425E-02   -.220E-02 0.226E-05 0.134E-02   -.508E-03 0.570E-18 0.133E-02   -.155E-03 -.629E-11 0.221E-02
   0.215E-02 0.153E-05 -.425E-02   -.220E-02 -.226E-05 0.134E-02   -.508E-03 0.571E-18 0.133E-02   -.155E-03 0.340E-10 0.221E-02
   0.268E+02 -.601E-06 -.391E+03   -.286E+02 0.124E-05 0.417E+03   0.174E+01 -.787E-14 -.254E+02   -.215E-03 -.896E-11 0.315E-02
   0.268E+02 -.505E-05 -.391E+03   -.286E+02 -.124E-05 0.417E+03   0.174E+01 -.787E-14 -.254E+02   -.215E-03 -.108E-11 0.315E-02
   -.268E+02 -.601E-06 0.391E+03   0.286E+02 0.124E-05 -.417E+03   -.174E+01 0.787E-14 0.254E+02   0.139E-03 -.895E-11 -.202E-02
   -.268E+02 -.505E-05 0.391E+03   0.286E+02 -.124E-05 -.417E+03   -.174E+01 0.787E-14 0.254E+02   0.139E-03 0.486E-10 -.202E-02
 -----------------------------------------------------------------------------------------------
   -.507E-02 -.101E-04 -.930E-02   0.142E-13 0.594E-14 0.000E+00   -.475E-02 0.146E-17 0.654E-02   -.463E-03 0.573E-10 0.667E-02
 
 
 POSITION                                       TOTAL-FORCE (eV/Angst)
 -----------------------------------------------------------------------------------
      1.68105     -0.00000      1.19674         0.001007     -0.000000     -0.000025
      4.09470      1.39690      1.36228         0.001007     -0.000000     -0.000025
      3.22703     -0.00000      2.22682        -0.016399      0.000000      0.225719
      0.81337      1.39690      2.06128        -0.016399      0.000000      0.225719
      0.13506     -0.00000      0.16662         0.015392     -0.000000     -0.225695
      2.54871      1.39690      0.33216         0.015392     -0.000000     -0.225695
 -----------------------------------------------------------------------------------
    total drift:                               -0.010279     -0.000010      0.003908


--------------------------------------------------------------------------------------------------------



  FREE ENERGIE OF THE ION-ELECTRON SYSTEM (eV)
  ---------------------------------------------------
  free  energy   TOTEN  =       -39.02250141 eV

  energy  without entropy=      -38.97709627  energy(sigma->0) =      -38.99979884
 
 d Force = 0.4492771E-01[ 0.117E-01, 0.782E-01]  d Energy = 0.2340358E+00-0.189E+00
 d Force = 0.2201399E+02[ 0.215E+02, 0.225E+02]  d Ewald  =-0.2465182E+02 0.467E+02


--------------------------------------------------------------------------------------------------------


    POTLOK:  cpu time    0.0133: real time    0.0133


--------------------------------------------------------------------------------------------------------


 stress matrix after NEB project (eV)
      0.41177     -0.00000      0.11897
     -0.00000      0.42070     -0.00000
      0.11897     -0.00000     -1.37007
  FORCES: max atom, RMS     0.226314    0.184747
  FORCE total and by dimension    0.452535    0.225719
  Stress total and by dimension    1.500650    1.370072


--------------------------------------------------------------------------------------------------------


  
 reached required accuracy - stopping structural energy minimisation
     LOOP+:  cpu time   38.9103: real time   39.1404
    4ORBIT:  cpu time    0.0000: real time    0.0000

 total amount of memory used by VASP MPI-rank0    46970. kBytes
=======================================================================

   base      :      30000. kBytes
   nonl-proj :      11505. kBytes
   fftplans  :        230. kBytes
   grid      :        366. kBytes
   one-center:         31. kBytes
   wavefun   :       4838. kBytes
 
  
  
 General timing and accounting informations for this job:
 ========================================================
  
                  Total CPU time used (sec):      144.848
                            User time (sec):      143.238
                          System time (sec):        1.610
                         Elapsed time (sec):      145.758
  
                   Maximum memory used (kb):       61512.
                   Average memory used (kb):           0.
  
                          Minor page faults:        24830
                          Major page faults:           12
                 Voluntary context switches:          961
