 vasp.5.4.4.18Apr17-6-g9f103f2a35 (build Apr 13 2025 12:23:30) complex          
  
 executed on             LinuxIFC date 2025.04.17  14:00:12
 running on   16 total cores
 distrk:  each k-point on   16 cores,    1 groups
 distr:  one band on NCORES_PER_BAND=   4 cores,    4 groups


--------------------------------------------------------------------------------------------------------


 INCAR:
 POTCAR:    PAW_PBE Li 17Jan2003                  
 POTCAR:    PAW_PBE Li 17Jan2003                  
   SHA256 =  3d9d9bfd1dd25b20a3b919cb3191e6ef627605783dc2e149b9290ff31c32aa6e Li
   COPYR  = (c) Copyright 17Jan2003 Georg Kresse                                
   COPYR  = This file is part of the software VASP. Any use, copying, and all ot
   COPYR  = If you do not have a valid VASP license, you may not use, copy or di
   VRHFIN =Li: s1p0                                                             
   LEXCH  = PE                                                                  
   EATOM  =     5.3001 eV,    0.3895 Ry                                         
                                                                                
   TITEL  = PAW_PBE Li 17Jan2003                                                
   LULTRA =        F    use ultrasoft PP ?                                      
   IUNSCR =        1    unscreen: 0-lin 1-nonlin 2-no                           
   RPACOR =    1.500    partial core radius                                     
   POMASS =    7.010; ZVAL   =    1.000    mass and valenz                      
   RCORE  =    2.050    outmost cutoff radius                                   
   RWIGS  =    2.600; RWIGS  =    1.376    wigner-seitz radius (au A)           
   ENMAX  =  140.000; ENMIN  =  100.000 eV                                      
   ICORE  =        2    local potential                                         
   LCOR   =        T    correct aug charges                                     
   LPAW   =        T    paw PP                                                  
   EAUG   =  331.638                                                            
   DEXC   =    0.000                                                            
   RMAX   =    2.098    core radius for proj-oper                               
   RAUG   =    1.300    factor for augmentation sphere                          
   RDEP   =    2.094    radius for radial grids                                 
   RDEPT  =    1.810    core radius for aug-charge                              
                                                                                
   Atomic configuration                                                         
    4 entries                                                                   
     n  l   j            E        occ.                                          
     1  0  0.50       -51.8549   2.0000                                         
     2  0  0.50        -2.8742   1.0000                                         
     2  1  0.50        -1.3606   0.0000                                         
     3  2  1.50        -1.3606   0.0000                                         
   Description                                                                  
     l       E           TYP  RCUT    TYP  RCUT                                 
     0     -2.8742052     23  2.050                                             
     0     27.2116520     23  2.050                                             
     1     -1.3605826     23  2.050                                             
     2     -1.3605826     23  2.050                                             
  local pseudopotential read in
  partial core-charges read in
  partial kinetic energy density read in
  atomic valenz-charges read in
  non local Contribution for L=           0  read in
    real space projection operators read in
  non local Contribution for L=           0  read in
    real space projection operators read in
  non local Contribution for L=           1  read in
    real space projection operators read in
    PAW grid and wavefunctions read in
 
   number of l-projection  operators is LMAX  =           3
   number of lm-projection operators is LMMAX =           5
 
  PAW_PBE Li 17Jan2003                  :
 energy of atom  1       EATOM=   -5.3001
 kinetic energy error for atom=    0.0000 (will be added to EATOM!!)
 
 
 POSCAR: Li                                      
  positions in cartesian coordinates
  No initial velocities read in
 exchange correlation table for  LEXCH =        8
   RHO(1)=    0.500       N(1)  =     2000
   RHO(2)=  100.500       N(2)  =     4000

 VTST: version 3.2, (02/03/18)

 CHAIN: initializing optimizer
 
 OPT: Using VASP Conjugate-Gradient optimizer
 CHAIN: Read ICHAIN            0
 
 POSCAR: Li                                      
  positions in cartesian coordinates
  No initial velocities read in
 


--------------------------------------------------------------------------------------------------------


 ion  position               nearest neighbor table
   1  0.000  0.000  0.000-   2 3.05   3 3.05   4 3.05   2 3.05   2 3.05   3 3.05   3 3.05   4 3.05
                             4 3.05   2 3.05   3 3.05   4 3.05
   2  0.000  0.500  0.500-   1 3.05   4 3.05   3 3.05   1 3.05   1 3.05   4 3.05   4 3.05   3 3.05
                             3 3.05   1 3.05   4 3.05   3 3.05
   3  0.500  0.000  0.500-   4 3.05   1 3.05   2 3.05   4 3.05   4 3.05   1 3.05   1 3.05   2 3.05
                             2 3.05   4 3.05   1 3.05   2 3.05
   4  0.500  0.500  0.000-   3 3.05   2 3.05   1 3.05   3 3.05   3 3.05   2 3.05   2 3.05   1 3.05
                             1 3.05   3 3.05   2 3.05   1 3.05
 
  LATTYP: Found a simple cubic cell.
 ALAT       =     4.3119766302
  
  Lattice vectors:
  
 A1 = (   4.3119766302,   0.0000000000,   0.0000000000)
 A2 = (   0.0000000000,   4.3119766302,   0.0000000000)
 A3 = (   0.0000000000,   0.0000000000,   4.3119766302)


Analysis of symmetry for initial positions (statically):
=====================================================================
 Subroutine PRICEL returns following result:
 
  LATTYP: Found a face centered cubic cell.
 ALAT       =     4.3119766302
  
  Lattice vectors:
  
 A1 = (   2.1559883151,   2.1559883151,   0.0000000000)
 A2 = (   2.1559883151,   0.0000000000,  -2.1559883151)
 A3 = (   0.0000000000,   2.1559883151,  -2.1559883151)
 
   4 primitive cells build up your supercell.
 

 Routine SETGRP: Setting up the symmetry group for a 
 simple cubic supercell.


 Subroutine GETGRP returns: Found 48 space group operations
 (whereof 48 operations were pure point group operations)
 out of a pool of 48 trial point group operations.


The static configuration has the point symmetry O_h .


Analysis of symmetry for dynamics (positions and initial velocities):
=====================================================================
 Subroutine PRICEL returns following result:
 
  LATTYP: Found a face centered cubic cell.
 ALAT       =     4.3119766302
  
  Lattice vectors:
  
 A1 = (   2.1559883151,   2.1559883151,   0.0000000000)
 A2 = (   2.1559883151,   0.0000000000,  -2.1559883151)
 A3 = (   0.0000000000,   2.1559883151,  -2.1559883151)
 
   4 primitive cells build up your supercell.
 

 Routine SETGRP: Setting up the symmetry group for a 
 simple cubic supercell.


 Subroutine GETGRP returns: Found 48 space group operations
 (whereof 48 operations were pure point group operations)
 out of a pool of 48 trial point group operations.


The dynamic configuration has the point symmetry O_h .


 Subroutine INISYM returns: Found 48 space group operations
 (whereof 48 operations are pure point group operations),
 and found     4 'primitive' translations

 
 
 KPOINTS: KPOINTS created by Atomic Simulation Env

Automatic generation of k-mesh.
Space group operators:
 irot       det(A)        alpha          n_x          n_y          n_z        tau_x        tau_y        tau_z
    1     1.000000     0.000001     1.000000     0.000000     0.000000     0.000000     0.000000     0.000000
    2    -1.000000     0.000001     1.000000     0.000000     0.000000     0.000000     0.000000     0.000000
    3     1.000000   120.000000    -0.577350    -0.577350    -0.577350     0.000000     0.000000     0.000000
    4    -1.000000   120.000000    -0.577350    -0.577350    -0.577350     0.000000     0.000000     0.000000
    5     1.000000   120.000000     0.577350     0.577350     0.577350     0.000000     0.000000     0.000000
    6    -1.000000   120.000000     0.577350     0.577350     0.577350     0.000000     0.000000     0.000000
    7     1.000000    90.000000     0.000000     0.000000    -1.000000     0.000000     0.000000     0.000000
    8    -1.000000    90.000000     0.000000     0.000000    -1.000000     0.000000     0.000000     0.000000
    9     1.000000   180.000000     0.000000    -0.707107    -0.707107     0.000000     0.000000     0.000000
   10    -1.000000   180.000000     0.000000    -0.707107    -0.707107     0.000000     0.000000     0.000000
   11     1.000000    90.000000    -0.000000     1.000000     0.000000     0.000000     0.000000     0.000000
   12    -1.000000    90.000000    -0.000000     1.000000     0.000000     0.000000     0.000000     0.000000
   13     1.000000   180.000000     0.000000     0.000000     1.000000     0.000000     0.000000     0.000000
   14    -1.000000   180.000000     0.000000     0.000000     1.000000     0.000000     0.000000     0.000000
   15     1.000000   120.000000    -0.577350     0.577350     0.577350     0.000000     0.000000     0.000000
   16    -1.000000   120.000000    -0.577350     0.577350     0.577350     0.000000     0.000000     0.000000
   17     1.000000   120.000000    -0.577350     0.577350    -0.577350     0.000000     0.000000     0.000000
   18    -1.000000   120.000000    -0.577350     0.577350    -0.577350     0.000000     0.000000     0.000000
   19     1.000000    90.000000     0.000000     0.000000     1.000000     0.000000     0.000000     0.000000
   20    -1.000000    90.000000     0.000000     0.000000     1.000000     0.000000     0.000000     0.000000
   21     1.000000    90.000000    -1.000000     0.000000    -0.000000     0.000000     0.000000     0.000000
   22    -1.000000    90.000000    -1.000000     0.000000    -0.000000     0.000000     0.000000     0.000000
   23     1.000000   180.000000     0.707107     0.000000     0.707107     0.000000     0.000000     0.000000
   24    -1.000000   180.000000     0.707107     0.000000     0.707107     0.000000     0.000000     0.000000
   25     1.000000   120.000000     0.577350    -0.577350     0.577350     0.000000     0.000000     0.000000
   26    -1.000000   120.000000     0.577350    -0.577350     0.577350     0.000000     0.000000     0.000000
   27     1.000000   120.000000    -0.577350    -0.577350     0.577350     0.000000     0.000000     0.000000
   28    -1.000000   120.000000    -0.577350    -0.577350     0.577350     0.000000     0.000000     0.000000
   29     1.000000   179.999999     1.000000     0.000000     0.000000     0.000000     0.000000     0.000000
   30    -1.000000   179.999999     1.000000     0.000000     0.000000     0.000000     0.000000     0.000000
   31     1.000000    90.000000     0.000000    -1.000000     0.000000     0.000000     0.000000     0.000000
   32    -1.000000    90.000000     0.000000    -1.000000     0.000000     0.000000     0.000000     0.000000
   33     1.000000   179.999999    -0.707107    -0.707107     0.000000     0.000000     0.000000     0.000000
   34    -1.000000   179.999999    -0.707107    -0.707107     0.000000     0.000000     0.000000     0.000000
   35     1.000000    90.000000     1.000000    -0.000000    -0.000000     0.000000     0.000000     0.000000
   36    -1.000000    90.000000     1.000000    -0.000000    -0.000000     0.000000     0.000000     0.000000
   37     1.000000   120.000000     0.577350    -0.577350    -0.577350     0.000000     0.000000     0.000000
   38    -1.000000   120.000000     0.577350    -0.577350    -0.577350     0.000000     0.000000     0.000000
   39     1.000000   179.999999    -0.000000     1.000000     0.000000     0.000000     0.000000     0.000000
   40    -1.000000   179.999999    -0.000000     1.000000     0.000000     0.000000     0.000000     0.000000
   41     1.000000   120.000000     0.577350     0.577350    -0.577350     0.000000     0.000000     0.000000
   42    -1.000000   120.000000     0.577350     0.577350    -0.577350     0.000000     0.000000     0.000000
   43     1.000000   180.000000     0.000000    -0.707107     0.707107     0.000000     0.000000     0.000000
   44    -1.000000   180.000000     0.000000    -0.707107     0.707107     0.000000     0.000000     0.000000
   45     1.000000   179.999999     0.707107    -0.707107     0.000000     0.000000     0.000000     0.000000
   46    -1.000000   179.999999     0.707107    -0.707107     0.000000     0.000000     0.000000     0.000000
   47     1.000000   180.000000     0.707107     0.000000    -0.707107     0.000000     0.000000     0.000000
   48    -1.000000   180.000000     0.707107     0.000000    -0.707107     0.000000     0.000000     0.000000
 
 Subroutine IBZKPT returns following result:
 ===========================================
 
 Found     20 irreducible k-points:
 
 Following reciprocal coordinates:
            Coordinates               Weight
  0.000000  0.000000  0.000000      1.000000
  0.142857  0.000000  0.000000      6.000000
  0.285714  0.000000  0.000000      6.000000
  0.428571  0.000000  0.000000      6.000000
  0.142857  0.142857  0.000000     12.000000
  0.285714  0.142857  0.000000     24.000000
  0.428571  0.142857  0.000000     24.000000
  0.285714  0.285714  0.000000     12.000000
  0.428571  0.285714  0.000000     24.000000
  0.428571  0.428571  0.000000     12.000000
  0.142857  0.142857  0.142857      8.000000
  0.285714  0.142857  0.142857     24.000000
  0.428571  0.142857  0.142857     24.000000
  0.285714  0.285714  0.142857     24.000000
  0.428571  0.285714  0.142857     48.000000
  0.428571  0.428571  0.142857     24.000000
  0.285714  0.285714  0.285714      8.000000
  0.428571  0.285714  0.285714     24.000000
  0.428571  0.428571  0.285714     24.000000
  0.428571  0.428571  0.428571      8.000000
 
 Following cartesian coordinates:
            Coordinates               Weight
  0.000000  0.000000  0.000000      1.000000
  0.033130 -0.000000  0.000000      6.000000
  0.066261 -0.000000  0.000000      6.000000
  0.099391 -0.000000  0.000000      6.000000
  0.033130  0.033130  0.000000     12.000000
  0.066261  0.033130  0.000000     24.000000
  0.099391  0.033130  0.000000     24.000000
  0.066261  0.066261  0.000000     12.000000
  0.099391  0.066261  0.000000     24.000000
  0.099391  0.099391  0.000000     12.000000
  0.033130  0.033130  0.033130      8.000000
  0.066261  0.033130  0.033130     24.000000
  0.099391  0.033130  0.033130     24.000000
  0.066261  0.066261  0.033130     24.000000
  0.099391  0.066261  0.033130     48.000000
  0.099391  0.099391  0.033130     24.000000
  0.066261  0.066261  0.066261      8.000000
  0.099391  0.066261  0.066261     24.000000
  0.099391  0.099391  0.066261     24.000000
  0.099391  0.099391  0.099391      8.000000
 


--------------------------------------------------------------------------------------------------------




 Dimension of arrays:
   k-points           NKPTS =     20   k-points in BZ     NKDIM =     20   number of bands    NBANDS=      8
   number of dos      NEDOS =    301   number of ions     NIONS =      4
   non local maximal  LDIM  =      3   non local SUM 2l+1 LMDIM =      5
   total plane-waves  NPLWV =  13824
   max r-space proj   IRMAX =      1   max aug-charges    IRDMAX=   5716
   dimension x,y,z NGX =    24 NGY =   24 NGZ =   24
   dimension x,y,z NGXF=    48 NGYF=   48 NGZF=   48
   support grid    NGXF=    48 NGYF=   48 NGZF=   48
   ions per type =               4
   NGX,Y,Z   is equivalent  to a cutoff of   9.25,  9.25,  9.25 a.u.
   NGXF,Y,Z  is equivalent  to a cutoff of  18.51, 18.51, 18.51 a.u.

 SYSTEM =  unknown system                          
 POSCAR =  Li                                      

 Startparameter for this run:
   NWRITE =      2    write-flag & timer
   PREC   = normal    normal or accurate (medium, high low for compatibility)
   ISTART =      0    job   : 0-new  1-cont  2-samecut
   ICHARG =      2    charge: 1-file 2-atom 10-const
   ISPIN  =      1    spin polarized calculation?
   LNONCOLLINEAR =      F non collinear calculations
   LSORBIT =      F    spin-orbit coupling
   INIWAV =      1    electr: 0-lowe 1-rand  2-diag
   LASPH  =      F    aspherical Exc in radial PAW
   METAGGA=      F    non-selfconsistent MetaGGA calc.

 Electronic Relaxation 1
   ENCUT  =  400.0 eV  29.40 Ry    5.42 a.u.   7.03  7.03  7.03*2*pi/ulx,y,z
   ENINI  =  400.0     initial cutoff
   ENAUG  =  331.6 eV  augmentation charge cutoff
   NELM   =     60;   NELMIN=  4; NELMDL= -5     # of ELM steps 
   EDIFF  = 0.1E-05   stopping-criterion for ELM
   LREAL  =      F    real-space projection
   NLSPLINE    = F    spline interpolate recip. space projectors
   LCOMPAT=      F    compatible to vasp.4.4
   GGA_COMPAT  = T    GGA compatible to vasp.4.4-vasp.4.6
   LMAXPAW     = -100 max onsite density
   LMAXMIX     =    2 max onsite mixed and CHGCAR
   VOSKOWN=      0    Vosko Wilk Nusair interpolation
   ROPT   =    0.00000
 Ionic relaxation
   EDIFFG = 0.1E-01   stopping-criterion for IOM
   NSW    =     20    number of steps for IOM
   NBLOCK =      1;   KBLOCK =     20    inner block; outer block 
   IBRION =      2    ionic relax: 0-MD 1-quasi-New 2-CG
   NFREE  =      1    steps in history (QN), initial steepest desc. (CG)
   ISIF   =      3    stress and relaxation
   IWAVPR =     11    prediction:  0-non 1-charg 2-wave 3-comb
   ISYM   =      2    0-nonsym 1-usesym 2-fastsym
   LCORR  =      T    Harris-Foulkes like correction to forces

   POTIM  = 0.5000    time-step for ionic-motion
   TEIN   =    0.0    initial temperature
   TEBEG  =    0.0;   TEEND  =   0.0 temperature during run
   SMASS  =  -3.00    Nose mass-parameter (am)
   estimated Nose-frequenzy (Omega)   =  0.10E-29 period in steps =****** mass=  -0.425E-27a.u.
   SCALEE = 1.0000    scale energy and forces
   NPACO  =    256;   APACO  = 16.0  distance and # of slots for P.C.
   PSTRESS=    0.0 pullay stress

  Mass of Ions in am
   POMASS =   7.01
  Ionic Valenz
   ZVAL   =   1.00
  Atomic Wigner-Seitz radii
   RWIGS  =  -1.00
  virtual crystal weights 
   VCA    =   1.00
   NELECT =       4.0000    total number of electrons
   NUPDOWN=      -1.0000    fix difference up-down

 DOS related values:
   EMIN   =  10.00;   EMAX   =-10.00  energy-range for DOS
   EFERMI =   0.00
   ISMEAR =     0;   SIGMA  =   0.10  broadening in eV -4-tet -1-fermi 0-gaus

 Electronic relaxation 2 (details)
   IALGO  =     38    algorithm
   LDIAG  =      T    sub-space diagonalisation (order eigenvalues)
   LSUBROT=      F    optimize rotation matrix (better conditioning)
   TURBO    =      0    0=normal 1=particle mesh
   IRESTART =      0    0=no restart 2=restart with 2 vectors
   NREBOOT  =      0    no. of reboots
   NMIN     =      0    reboot dimension
   EREF     =   0.00    reference energy to select bands
   IMIX   =      4    mixing-type and parameters
     AMIX     =   0.40;   BMIX     =  1.00
     AMIX_MAG =   1.60;   BMIX_MAG =  1.00
     AMIN     =   0.10
     WC   =   100.;   INIMIX=   1;  MIXPRE=   1;  MAXMIX= -45

 Intra band minimization:
   WEIMIN = 0.0010     energy-eigenvalue tresh-hold
   EBREAK =  0.31E-07  absolut break condition
   DEPER  =   0.30     relativ break condition  

   TIME   =   0.40     timestep for ELM

  volume/ion in A,a.u.               =      20.04       135.26
  Fermi-wavevector in a.u.,A,eV,Ry     =   0.602678  1.138896  4.941913  0.363220
  Thomas-Fermi vector in A             =   1.655375
 
 Write flags
   LWAVE        =      F    write WAVECAR
   LDOWNSAMPLE  =      F    k-point downsampling of WAVECAR
   LCHARG       =      F    write CHGCAR
   LVTOT        =      F    write LOCPOT, total local potential
   LVHAR        =      F    write LOCPOT, Hartree potential only
   LELF         =      F    write electronic localiz. function (ELF)
   LORBIT       =      0    0 simple, 1 ext, 2 COOP (PROOUT), +10 PAW based schemes


 Dipole corrections
   LMONO  =      F    monopole corrections only (constant potential shift)
   LDIPOL =      F    correct potential (dipole corrections)
   IDIPOL =      0    1-x, 2-y, 3-z, 4-all directions 
   EPSILON=  1.0000000 bulk dielectric constant

 Exchange correlation treatment:
   GGA     =    PE    GGA type
   LEXCH   =     8    internal setting for exchange type
   VOSKOWN=      0    Vosko Wilk Nusair interpolation
   LHFCALC =     F    Hartree Fock is set to
   LHFONE  =     F    Hartree Fock one center treatment
   AEXX    =    0.0000 exact exchange contribution

 Linear response parameters
   LEPSILON=     F    determine dielectric tensor
   LRPA    =     F    only Hartree local field effects (RPA)
   LNABLA  =     F    use nabla operator in PAW spheres
   LVEL    =     F    velocity operator in full k-point grid
   LINTERFAST=   F  fast interpolation
   KINTER  =     0    interpolate to denser k-point grid
   CSHIFT  =0.1000    complex shift for real part using Kramers Kronig
   OMEGAMAX=  -1.0    maximum frequency
   DEG_THRESHOLD= 0.2000000E-02 threshold for treating states as degnerate
   RTIME   =   -0.100 relaxation time in fs
  (WPLASMAI=    0.000 imaginary part of plasma frequency in eV, 0.658/RTIME)
   DFIELD  = 0.0000000 0.0000000 0.0000000 field for delta impulse in time
 
 Orbital magnetization related:
   ORBITALMAG=     F  switch on orbital magnetization
   LCHIMAG   =     F  perturbation theory with respect to B field
   DQ        =  0.001000  dq finite difference perturbation B field
   LLRAUG    =     F  two centre corrections for induced B field



--------------------------------------------------------------------------------------------------------


 conjugate gradient relaxation of ions
 charge density and potential will be updated during run
 non-spin polarized calculation
 Variant of blocked Davidson
 Davidson routine will perform the subspace rotation
 perform sub-space diagonalisation
    after iterative eigenvector-optimisation
 modified Broyden-mixing scheme, WC =      100.0
 initial mixing is a Kerker type mixing with AMIX =  0.4000 and BMIX =      1.0000
 Hartree-type preconditioning will be used
 using additional bands            6
 reciprocal scheme for non local part
 use partial core corrections
 calculate Harris-corrections to forces 
   (improved forces if not selfconsistent)
 use gradient corrections 
 use of overlap-Matrix (Vanderbilt PP)
 Gauss-broadening in eV      SIGMA  =   0.10


--------------------------------------------------------------------------------------------------------


  energy-cutoff  :      400.00
  volume of cell :       80.17
      direct lattice vectors                 reciprocal lattice vectors
     4.311976630  0.000000000  0.000000000     0.231912203 -0.000000000  0.000000000
     0.000000000  4.311976630  0.000000000    -0.000000000  0.231912203  0.000000000
     0.000000000  0.000000000  4.311976630     0.000000000  0.000000000  0.231912203

  length of vectors
     4.311976630  4.311976630  4.311976630     0.231912203  0.231912203  0.231912203


 
 k-points in units of 2pi/SCALE and weight: KPOINTS created by Atomic Simulation Env
   0.00000000  0.00000000  0.00000000       0.003
   0.03313031 -0.00000000  0.00000000       0.017
   0.06626063 -0.00000000  0.00000000       0.017
   0.09939094 -0.00000000  0.00000000       0.017
   0.03313031  0.03313031  0.00000000       0.035
   0.06626063  0.03313031  0.00000000       0.070
   0.09939094  0.03313031  0.00000000       0.070
   0.06626063  0.06626063  0.00000000       0.035
   0.09939094  0.06626063  0.00000000       0.070
   0.09939094  0.09939094  0.00000000       0.035
   0.03313031  0.03313031  0.03313031       0.023
   0.06626063  0.03313031  0.03313031       0.070
   0.09939094  0.03313031  0.03313031       0.070
   0.06626063  0.06626063  0.03313031       0.070
   0.09939094  0.06626063  0.03313031       0.140
   0.09939094  0.09939094  0.03313031       0.070
   0.06626063  0.06626063  0.06626063       0.023
   0.09939094  0.06626063  0.06626063       0.070
   0.09939094  0.09939094  0.06626063       0.070
   0.09939094  0.09939094  0.09939094       0.023
 
 k-points in reciprocal lattice and weights: KPOINTS created by Atomic Simulation Env
   0.00000000  0.00000000  0.00000000       0.003
   0.14285714  0.00000000  0.00000000       0.017
   0.28571429  0.00000000  0.00000000       0.017
   0.42857143  0.00000000  0.00000000       0.017
   0.14285714  0.14285714  0.00000000       0.035
   0.28571429  0.14285714  0.00000000       0.070
   0.42857143  0.14285714  0.00000000       0.070
   0.28571429  0.28571429  0.00000000       0.035
   0.42857143  0.28571429  0.00000000       0.070
   0.42857143  0.42857143  0.00000000       0.035
   0.14285714  0.14285714  0.14285714       0.023
   0.28571429  0.14285714  0.14285714       0.070
   0.42857143  0.14285714  0.14285714       0.070
   0.28571429  0.28571429  0.14285714       0.070
   0.42857143  0.28571429  0.14285714       0.140
   0.42857143  0.42857143  0.14285714       0.070
   0.28571429  0.28571429  0.28571429       0.023
   0.42857143  0.28571429  0.28571429       0.070
   0.42857143  0.42857143  0.28571429       0.070
   0.42857143  0.42857143  0.42857143       0.023
 
 position of ions in fractional coordinates (direct lattice) 
   0.00000000  0.00000000  0.00000000
   0.00000000  0.50000000  0.50000000
   0.50000000  0.00000000  0.50000000
   0.50000000  0.50000000  0.00000000
 
 position of ions in cartesian coordinates  (Angst):
   0.00000000  0.00000000  0.00000000
   0.00000000  2.15598832  2.15598832
   2.15598832  0.00000000  2.15598832
   2.15598832  2.15598832  0.00000000
 


--------------------------------------------------------------------------------------------------------


 k-point  1 :   0.0000 0.0000 0.0000  plane waves:    1419
 k-point  2 :   0.1429 0.0000 0.0000  plane waves:    1430
 k-point  3 :   0.2857 0.0000 0.0000  plane waves:    1434
 k-point  4 :   0.4286 0.0000 0.0000  plane waves:    1450
 k-point  5 :   0.1429 0.1429 0.0000  plane waves:    1436
 k-point  6 :   0.2857 0.1429 0.0000  plane waves:    1450
 k-point  7 :   0.4286 0.1429 0.0000  plane waves:    1459
 k-point  8 :   0.2857 0.2857 0.0000  plane waves:    1454
 k-point  9 :   0.4286 0.2857 0.0000  plane waves:    1469
 k-point 10 :   0.4286 0.4286 0.0000  plane waves:    1454
 k-point 11 :   0.1429 0.1429 0.1429  plane waves:    1451
 k-point 12 :   0.2857 0.1429 0.1429  plane waves:    1461
 k-point 13 :   0.4286 0.1429 0.1429  plane waves:    1456
 k-point 14 :   0.2857 0.2857 0.1429  plane waves:    1457
 k-point 15 :   0.4286 0.2857 0.1429  plane waves:    1460
 k-point 16 :   0.4286 0.4286 0.1429  plane waves:    1458
 k-point 17 :   0.2857 0.2857 0.2857  plane waves:    1457
 k-point 18 :   0.4286 0.2857 0.2857  plane waves:    1467
 k-point 19 :   0.4286 0.4286 0.2857  plane waves:    1457
 k-point 20 :   0.4286 0.4286 0.4286  plane waves:    1466

 maximum and minimum number of plane-waves per node :       380      347

 maximum number of plane-waves:      1469
 maximum index in each direction: 
   IXMAX=    7   IYMAX=    7   IZMAX=    7
   IXMIN=   -7   IYMIN=   -7   IZMIN=   -7


 parallel 3D FFT for wavefunctions:
    minimum data exchange during FFTs selected (reduces bandwidth)
 parallel 3D FFT for charge:
    minimum data exchange during FFTs selected (reduces bandwidth)


 total amount of memory used by VASP MPI-rank0    31386. kBytes
=======================================================================

   base      :      30000. kBytes
   nonl-proj :        317. kBytes
   fftplans  :        347. kBytes
   grid      :        481. kBytes
   one-center:          1. kBytes
   wavefun   :        240. kBytes
 
     INWAV:  cpu time    0.0000: real time    0.0000
 Broyden mixing: mesh for mixing (old mesh)
   NGX = 15   NGY = 15   NGZ = 15
  (NGX  = 48   NGY  = 48   NGZ  = 48)
  gives a total of   3375 points

 initial charge density was supplied:
 charge density of overlapping atoms calculated
 number of electron       4.0000000 magnetization 
 keeping initial charge density in first step


--------------------------------------------------------------------------------------------------------


 Maximum index for augmentation-charges          373 (set IRDMAX)


--------------------------------------------------------------------------------------------------------


 First call to EWALD:  gamma=   0.411
 Maximum number of real-space cells 3x 3x 3
 Maximum number of reciprocal cells 3x 3x 3

    FEWALD:  cpu time    0.0018: real time    0.0018


--------------------------------------- Iteration      1(   1)  ---------------------------------------


    POTLOK:  cpu time    0.0366: real time    0.0373
    SETDIJ:  cpu time    0.0020: real time    0.0021
     EDDAV:  cpu time    0.1633: real time    0.1641
       DOS:  cpu time    0.0005: real time    0.0005
    --------------------------------------------
      LOOP:  cpu time    0.2024: real time    0.2039

 eigenvalue-minimisations  :   320
 total energy-change (2. order) :-0.5828846E+01  (-0.9295344E+02)
 number of electron       4.0000000 magnetization 
 augmentation part        4.0000000 magnetization 

 Free energy of the ion-electron system (eV)
  ---------------------------------------------------
  alpha Z        PSCENC =         0.52280763
  Ewald energy   TEWEN  =       -30.62216910
  -Hartree energ DENC   =        -0.01836037
  -exchange      EXHF   =         0.00000000
  -V(xc)+E(xc)   XCENC  =       -17.08343932
  PAW double counting   =        30.65046236       -8.41690918
  entropy T*S    EENTRO =        -0.00773332
  eigenvalues    EBANDS =        -2.05386008
  atomic energy  EATOM  =        21.20035548
  Solvation  Ediel_sol  =         0.00000000
  ---------------------------------------------------
  free energy    TOTEN  =        -5.82884591 eV

  energy without entropy =       -5.82111259  energy(sigma->0) =       -5.82497925


--------------------------------------------------------------------------------------------------------




--------------------------------------- Iteration      1(   2)  ---------------------------------------


     EDDAV:  cpu time    0.2181: real time    0.2191
       DOS:  cpu time    0.0005: real time    0.0005
    --------------------------------------------
      LOOP:  cpu time    0.2186: real time    0.2196

 eigenvalue-minimisations  :   456
 total energy-change (2. order) :-0.1769671E+01  (-0.1733081E+01)
 number of electron       4.0000000 magnetization 
 augmentation part        4.0000000 magnetization 

 Free energy of the ion-electron system (eV)
  ---------------------------------------------------
  alpha Z        PSCENC =         0.52280763
  Ewald energy   TEWEN  =       -30.62216910
  -Hartree energ DENC   =        -0.01836037
  -exchange      EXHF   =         0.00000000
  -V(xc)+E(xc)   XCENC  =       -17.08343932
  PAW double counting   =        30.65046236       -8.41690918
  entropy T*S    EENTRO =        -0.00935293
  eigenvalues    EBANDS =        -3.82191144
  atomic energy  EATOM  =        21.20035548
  Solvation  Ediel_sol  =         0.00000000
  ---------------------------------------------------
  free energy    TOTEN  =        -7.59851687 eV

  energy without entropy =       -7.58916395  energy(sigma->0) =       -7.59384041


--------------------------------------------------------------------------------------------------------




--------------------------------------- Iteration      1(   3)  ---------------------------------------


     EDDAV:  cpu time    0.1941: real time    0.1952
       DOS:  cpu time    0.0005: real time    0.0005
    --------------------------------------------
      LOOP:  cpu time    0.1946: real time    0.1957

 eigenvalue-minimisations  :   400
 total energy-change (2. order) :-0.1802814E-01  (-0.1797651E-01)
 number of electron       4.0000000 magnetization 
 augmentation part        4.0000000 magnetization 

 Free energy of the ion-electron system (eV)
  ---------------------------------------------------
  alpha Z        PSCENC =         0.52280763
  Ewald energy   TEWEN  =       -30.62216910
  -Hartree energ DENC   =        -0.01836037
  -exchange      EXHF   =         0.00000000
  -V(xc)+E(xc)   XCENC  =       -17.08343932
  PAW double counting   =        30.65046236       -8.41690918
  entropy T*S    EENTRO =        -0.00961530
  eigenvalues    EBANDS =        -3.83967721
  atomic energy  EATOM  =        21.20035548
  Solvation  Ediel_sol  =         0.00000000
  ---------------------------------------------------
  free energy    TOTEN  =        -7.61654501 eV

  energy without entropy =       -7.60692972  energy(sigma->0) =       -7.61173736


--------------------------------------------------------------------------------------------------------




--------------------------------------- Iteration      1(   4)  ---------------------------------------


     EDDAV:  cpu time    0.1925: real time    0.1936
       DOS:  cpu time    0.0005: real time    0.0005
    --------------------------------------------
      LOOP:  cpu time    0.1930: real time    0.1941

 eigenvalue-minimisations  :   400
 total energy-change (2. order) :-0.4109190E-04  (-0.4109168E-04)
 number of electron       4.0000000 magnetization 
 augmentation part        4.0000000 magnetization 

 Free energy of the ion-electron system (eV)
  ---------------------------------------------------
  alpha Z        PSCENC =         0.52280763
  Ewald energy   TEWEN  =       -30.62216910
  -Hartree energ DENC   =        -0.01836037
  -exchange      EXHF   =         0.00000000
  -V(xc)+E(xc)   XCENC  =       -17.08343932
  PAW double counting   =        30.65046236       -8.41690918
  entropy T*S    EENTRO =        -0.00961557
  eigenvalues    EBANDS =        -3.83971803
  atomic energy  EATOM  =        21.20035548
  Solvation  Ediel_sol  =         0.00000000
  ---------------------------------------------------
  free energy    TOTEN  =        -7.61658610 eV

  energy without entropy =       -7.60697054  energy(sigma->0) =       -7.61177832


--------------------------------------------------------------------------------------------------------




--------------------------------------- Iteration      1(   5)  ---------------------------------------


     EDDAV:  cpu time    0.1970: real time    0.1982
       DOS:  cpu time    0.0005: real time    0.0005
    CHARGE:  cpu time    0.0255: real time    0.0256
    MIXING:  cpu time    0.0005: real time    0.0005
    --------------------------------------------
      LOOP:  cpu time    0.2235: real time    0.2248

 eigenvalue-minimisations  :   408
 total energy-change (2. order) :-0.2949491E-06  (-0.2949572E-06)
 number of electron       4.0000000 magnetization 
 augmentation part        0.0311836 magnetization 

 Broyden mixing:
  rms(total) = 0.28017E-01    rms(broyden)= 0.28017E-01
  rms(prec ) = 0.71825E-01
  weight for this iteration     100.00

 Free energy of the ion-electron system (eV)
  ---------------------------------------------------
  alpha Z        PSCENC =         0.52280763
  Ewald energy   TEWEN  =       -30.62216910
  -Hartree energ DENC   =        -0.01836037
  -exchange      EXHF   =         0.00000000
  -V(xc)+E(xc)   XCENC  =       -17.08343932
  PAW double counting   =        30.65046236       -8.41690918
  entropy T*S    EENTRO =        -0.00961557
  eigenvalues    EBANDS =        -3.83971833
  atomic energy  EATOM  =        21.20035548
  Solvation  Ediel_sol  =         0.00000000
  ---------------------------------------------------
  free energy    TOTEN  =        -7.61658640 eV

  energy without entropy =       -7.60697083  energy(sigma->0) =       -7.61177862


--------------------------------------------------------------------------------------------------------




--------------------------------------- Iteration      1(   6)  ---------------------------------------


    POTLOK:  cpu time    0.0119: real time    0.0121
    SETDIJ:  cpu time    0.0020: real time    0.0020
     EDDAV:  cpu time    0.1787: real time    0.1795
       DOS:  cpu time    0.0006: real time    0.0006
    CHARGE:  cpu time    0.0153: real time    0.0153
    MIXING:  cpu time    0.0005: real time    0.0005
    --------------------------------------------
      LOOP:  cpu time    0.2088: real time    0.2100

 eigenvalue-minimisations  :   368
 total energy-change (2. order) : 0.4313442E-02  (-0.1940410E-04)
 number of electron       4.0000000 magnetization 
 augmentation part        0.0313107 magnetization 

 Broyden mixing:
  rms(total) = 0.18400E-01    rms(broyden)= 0.18400E-01
  rms(prec ) = 0.47500E-01
  weight for this iteration     100.00

 eigenvalues of (default mixing * dielectric matrix)
  average eigenvalue GAMMA=   2.8959
  2.8959

 Free energy of the ion-electron system (eV)
  ---------------------------------------------------
  alpha Z        PSCENC =         0.52280763
  Ewald energy   TEWEN  =       -30.62216910
  -Hartree energ DENC   =        -0.02754771
  -exchange      EXHF   =         0.00000000
  -V(xc)+E(xc)   XCENC  =       -17.05079616
  PAW double counting   =        33.00028328      -10.77742058
  entropy T*S    EENTRO =        -0.00961299
  eigenvalues    EBANDS =        -3.84817281
  atomic energy  EATOM  =        21.20035548
  Solvation  Ediel_sol  =         0.00000000
  ---------------------------------------------------
  free energy    TOTEN  =        -7.61227296 eV

  energy without entropy =       -7.60265997  energy(sigma->0) =       -7.60746646


--------------------------------------------------------------------------------------------------------




--------------------------------------- Iteration      1(   7)  ---------------------------------------


    POTLOK:  cpu time    0.0118: real time    0.0120
    SETDIJ:  cpu time    0.0019: real time    0.0019
     EDDAV:  cpu time    0.1729: real time    0.1737
       DOS:  cpu time    0.0006: real time    0.0006
    CHARGE:  cpu time    0.0153: real time    0.0153
    MIXING:  cpu time    0.0005: real time    0.0005
    --------------------------------------------
      LOOP:  cpu time    0.2030: real time    0.2041

 eigenvalue-minimisations  :   352
 total energy-change (2. order) : 0.2782073E-02  (-0.5390297E-04)
 number of electron       4.0000000 magnetization 
 augmentation part        0.0314814 magnetization 

 Broyden mixing:
  rms(total) = 0.92147E-03    rms(broyden)= 0.92147E-03
  rms(prec ) = 0.10483E-02
  weight for this iteration     100.00

 eigenvalues of (default mixing * dielectric matrix)
  average eigenvalue GAMMA=   2.6511
  2.8579  2.4444

 Free energy of the ion-electron system (eV)
  ---------------------------------------------------
  alpha Z        PSCENC =         0.52280763
  Ewald energy   TEWEN  =       -30.62216910
  -Hartree energ DENC   =        -0.05223726
  -exchange      EXHF   =         0.00000000
  -V(xc)+E(xc)   XCENC  =       -16.98359857
  PAW double counting   =        37.94903451      -15.75214050
  entropy T*S    EENTRO =        -0.00960848
  eigenvalues    EBANDS =        -3.86193459
  atomic energy  EATOM  =        21.20035548
  Solvation  Ediel_sol  =         0.00000000
  ---------------------------------------------------
  free energy    TOTEN  =        -7.60949088 eV

  energy without entropy =       -7.59988240  energy(sigma->0) =       -7.60468664


--------------------------------------------------------------------------------------------------------




--------------------------------------- Iteration      1(   8)  ---------------------------------------


    POTLOK:  cpu time    0.0117: real time    0.0119
    SETDIJ:  cpu time    0.0019: real time    0.0019
     EDDAV:  cpu time    0.2127: real time    0.2137
       DOS:  cpu time    0.0006: real time    0.0006
    CHARGE:  cpu time    0.0151: real time    0.0152
    MIXING:  cpu time    0.0005: real time    0.0005
    --------------------------------------------
      LOOP:  cpu time    0.2426: real time    0.2439

 eigenvalue-minimisations  :   440
 total energy-change (2. order) : 0.1022753E-03  (-0.8404600E-06)
 number of electron       4.0000000 magnetization 
 augmentation part        0.0314899 magnetization 

 Broyden mixing:
  rms(total) = 0.26453E-03    rms(broyden)= 0.26453E-03
  rms(prec ) = 0.33086E-03
  weight for this iteration     100.00

 eigenvalues of (default mixing * dielectric matrix)
  average eigenvalue GAMMA=   2.0972
  2.8682  2.5159  0.9075

 Free energy of the ion-electron system (eV)
  ---------------------------------------------------
  alpha Z        PSCENC =         0.52280763
  Ewald energy   TEWEN  =       -30.62216910
  -Hartree energ DENC   =        -0.05210198
  -exchange      EXHF   =         0.00000000
  -V(xc)+E(xc)   XCENC  =       -16.98405358
  PAW double counting   =        37.44315650      -15.24267235
  entropy T*S    EENTRO =        -0.00960871
  eigenvalues    EBANDS =        -3.86510249
  atomic energy  EATOM  =        21.20035548
  Solvation  Ediel_sol  =         0.00000000
  ---------------------------------------------------
  free energy    TOTEN  =        -7.60938861 eV

  energy without entropy =       -7.59977990  energy(sigma->0) =       -7.60458426


--------------------------------------------------------------------------------------------------------




--------------------------------------- Iteration      1(   9)  ---------------------------------------


    POTLOK:  cpu time    0.0117: real time    0.0120
    SETDIJ:  cpu time    0.0019: real time    0.0020
     EDDAV:  cpu time    0.1733: real time    0.1742
       DOS:  cpu time    0.0006: real time    0.0006
    CHARGE:  cpu time    0.0152: real time    0.0153
    MIXING:  cpu time    0.0006: real time    0.0006
    --------------------------------------------
      LOOP:  cpu time    0.2034: real time    0.2046

 eigenvalue-minimisations  :   352
 total energy-change (2. order) : 0.9161058E-05  (-0.1093743E-06)
 number of electron       4.0000000 magnetization 
 augmentation part        0.0314852 magnetization 

 Broyden mixing:
  rms(total) = 0.32217E-04    rms(broyden)= 0.32217E-04
  rms(prec ) = 0.61814E-04
  weight for this iteration     100.00

 eigenvalues of (default mixing * dielectric matrix)
  average eigenvalue GAMMA=   2.2678
  0.9404  2.4051  2.6870  3.0387

 Free energy of the ion-electron system (eV)
  ---------------------------------------------------
  alpha Z        PSCENC =         0.52280763
  Ewald energy   TEWEN  =       -30.62216910
  -Hartree energ DENC   =        -0.05204447
  -exchange      EXHF   =         0.00000000
  -V(xc)+E(xc)   XCENC  =       -16.98425048
  PAW double counting   =        37.24171039      -15.03978242
  entropy T*S    EENTRO =        -0.00960879
  eigenvalues    EBANDS =        -3.86639768
  atomic energy  EATOM  =        21.20035548
  Solvation  Ediel_sol  =         0.00000000
  ---------------------------------------------------
  free energy    TOTEN  =        -7.60937945 eV

  energy without entropy =       -7.59977066  energy(sigma->0) =       -7.60457505


--------------------------------------------------------------------------------------------------------




--------------------------------------- Iteration      1(  10)  ---------------------------------------


    POTLOK:  cpu time    0.0117: real time    0.0120
    SETDIJ:  cpu time    0.0019: real time    0.0019
     EDDAV:  cpu time    0.1137: real time    0.1143
       DOS:  cpu time    0.0005: real time    0.0005
    --------------------------------------------
      LOOP:  cpu time    0.1278: real time    0.1287

 eigenvalue-minimisations  :   192
 total energy-change (2. order) :-0.6864160E-07  (-0.5074513E-09)
 number of electron       4.0000000 magnetization 
 augmentation part        0.0314852 magnetization 

 Free energy of the ion-electron system (eV)
  ---------------------------------------------------
  alpha Z        PSCENC =         0.52280763
  Ewald energy   TEWEN  =       -30.62216910
  -Hartree energ DENC   =        -0.05205973
  -exchange      EXHF   =         0.00000000
  -V(xc)+E(xc)   XCENC  =       -16.98422701
  PAW double counting   =        37.25333868      -15.05148974
  entropy T*S    EENTRO =        -0.00960876
  eigenvalues    EBANDS =        -3.86632696
  atomic energy  EATOM  =        21.20035548
  Solvation  Ediel_sol  =         0.00000000
  ---------------------------------------------------
  free energy    TOTEN  =        -7.60937952 eV

  energy without entropy =       -7.59977076  energy(sigma->0) =       -7.60457514


--------------------------------------------------------------------------------------------------------




 average (electrostatic) potential at core
  the test charge radii are     0.9748
  (the norm of the test charge is              1.0000)
       1 -30.5064       2 -30.5064       3 -30.5064       4 -30.5064
 
 
 
 E-fermi :   0.4158     XC(G=0):  -6.7941     alpha+bet : -7.3276


 k-point     1 :       0.0000    0.0000    0.0000
  band No.  band energies     occupation 
      1      -3.1618      2.00000
      2       1.9708      0.00000
      3       1.9708      0.00000
      4       1.9708      0.00000
      5       5.1671      0.00000
      6       5.1671      0.00000
      7       5.1671      0.00000
      8       8.9364      0.00000

 k-point     2 :       0.1429    0.0000    0.0000
  band No.  band energies     occupation 
      1      -3.0388      2.00000
      2       1.1877      0.00000
      3       2.1328      0.00000
      4       2.1328      0.00000
      5       5.1014      0.00000
      6       5.1014      0.00000
      7       6.2670      0.00000
      8       7.6605      0.00000

 k-point     3 :       0.2857    0.0000    0.0000
  band No.  band energies     occupation 
      1      -2.6682      2.00000
      2      -0.0639      2.00000
      3       2.6183      0.00000
      4       2.6183      0.00000
      5       4.9632      0.00000
      6       4.9632      0.00000
      7       5.9815      0.00000
      8       5.9815      0.00000

 k-point     4 :       0.4286    0.0000    0.0000
  band No.  band energies     occupation 
      1      -2.0468      2.00000
      2      -1.1737      2.00000
      3       3.4257      0.00000
      4       3.4257      0.00000
      5       4.5510      0.00000
      6       4.5510      0.00000
      7       4.8604      0.00000
      8       4.8604      0.00000

 k-point     5 :       0.1429    0.1429    0.0000
  band No.  band energies     occupation 
      1      -2.9159      2.00000
      2       1.3242      0.00000
      3       1.3242      0.00000
      4       2.2947      0.00000
      5       4.8336      0.00000
      6       6.1991      0.00000
      7       6.1991      0.00000
      8       7.1871      0.00000

 k-point     6 :       0.2857    0.1429    0.0000
  band No.  band energies     occupation 
      1      -2.5456      2.00000
      2       0.0607      2.00000
      3       1.7272      0.00000
      4       2.7801      0.00000
      5       4.1165      0.00000
      6       6.0750      0.00000
      7       6.1422      0.00000
      8       6.5563      0.00000

 k-point     7 :       0.4286    0.1429    0.0000
  band No.  band energies     occupation 
      1      -1.9246      2.00000
      2      -1.0515      2.00000
      3       2.3749      0.00000
      4       3.2135      0.00000
      5       3.5874      0.00000
      6       4.7123      0.00000
      7       6.0345      0.00000
      8       6.1754      0.00000

 k-point     8 :       0.2857    0.2857    0.0000
  band No.  band energies     occupation 
      1      -2.1763      2.00000
      2       0.4328      0.81003
      3       0.4328      0.81003
      4       2.9404      0.00000
      5       3.2652      0.00000
      6       6.6235      0.00000
      7       6.6235      0.00000
      8       7.0251      0.00000

 k-point     9 :       0.4286    0.2857    0.0000
  band No.  band energies     occupation 
      1      -1.5566      2.00000
      2      -0.6841      2.00000
      3       1.0471      0.00000
      4       1.8919      0.00000
      5       4.0718      0.00000
      6       5.1956      0.00000
      7       7.2870      0.00000
      8       7.4229      0.00000

 k-point    10 :       0.4286    0.4286    0.0000
  band No.  band energies     occupation 
      1      -0.9395      2.00000
      2      -0.0704      2.00000
      3      -0.0704      2.00000
      4       0.7899      0.00000
      5       4.8772      0.00000
      6       5.9989      0.00000
      7       5.9989      0.00000
      8       7.1168      0.00000

 k-point    11 :       0.1429    0.1429    0.1429
  band No.  band energies     occupation 
      1      -2.7932      2.00000
      2       1.4533      0.00000
      3       1.4533      0.00000
      4       1.4533      0.00000
      5       5.7776      0.00000
      6       5.7776      0.00000
      7       5.7776      0.00000
      8       7.5484      0.00000

 k-point    12 :       0.2857    0.1429    0.1429
  band No.  band energies     occupation 
      1      -2.4237      2.00000
      2       0.1798      1.99915
      3       1.8214      0.00000
      4       1.8214      0.00000
      5       4.8433      0.00000
      6       4.8433      0.00000
      7       6.9662      0.00000
      8       7.2109      0.00000

 k-point    13 :       0.4286    0.1429    0.1429
  band No.  band energies     occupation 
      1      -1.8040      2.00000
      2      -0.9323      2.00000
      3       2.3032      0.00000
      4       2.3032      0.00000
      5       3.9843      0.00000
      6       3.9843      0.00000
      7       7.0220      0.00000
      8       7.0220      0.00000

 k-point    14 :       0.2857    0.2857    0.1429
  band No.  band energies     occupation 
      1      -2.0566      2.00000
      2       0.5308      0.10378
      3       0.5308      0.10378
      4       1.9854      0.00000
      5       3.8537      0.00000
      6       5.6369      0.00000
      7       5.6369      0.00000
      8       7.8328      0.00000

 k-point    15 :       0.4286    0.2857    0.1429
  band No.  band energies     occupation 
      1      -1.4412      2.00000
      2      -0.5758      2.00000
      3       1.0851      0.00000
      4       1.7212      0.00000
      5       3.7495      0.00000
      6       4.5010      0.00000
      7       6.4886      0.00000
      8       7.5529      0.00000

 k-point    16 :       0.4286    0.4286    0.1429
  band No.  band energies     occupation 
      1      -0.8350      2.00000
      2       0.0128      2.00000
      3       0.0128      2.00000
      4       0.8119      0.00000
      5       4.3059      0.00000
      6       5.2573      0.00000
      7       5.2573      0.00000
      8       6.2804      0.00000

 k-point    17 :       0.2857    0.2857    0.2857
  band No.  band energies     occupation 
      1      -1.6970      2.00000
      2       0.7951      0.00000
      3       0.7951      0.00000
      4       0.7951      0.00000
      5       4.4567      0.00000
      6       4.4567      0.00000
      7       4.4567      0.00000
      8       7.4376      0.00000

 k-point    18 :       0.4286    0.2857    0.2857
  band No.  band energies     occupation 
      1      -1.0966      2.00000
      2      -0.2589      2.00000
      3       1.0848      0.00000
      4       1.0848      0.00000
      5       3.6874      0.00000
      6       3.6874      0.00000
      7       5.2174      0.00000
      8       6.2102      0.00000

 k-point    19 :       0.4286    0.4286    0.2857
  band No.  band energies     occupation 
      1      -0.5300      2.00000
      2       0.2307      1.99113
      3       0.2307      1.99113
      4       0.7731      0.00000
      5       3.5851      0.00000
      6       4.1894      0.00000
      7       4.1894      0.00000
      8       5.0604      0.00000

 k-point    20 :       0.4286    0.4286    0.4286
  band No.  band energies     occupation 
      1      -0.0618      2.00000
      2       0.4545      0.58434
      3       0.4545      0.58434
      4       0.4545      0.58434
      5       3.4988      0.00000
      6       3.4988      0.00000
      7       3.4988      0.00000
      8       4.0702      0.00000


--------------------------------------------------------------------------------------------------------


 soft charge-density along one line, spin component           1
         0         1         2         3         4         5         6         7         8         9
 total charge-density along one line
 
 pseudopotential strength for first ion, spin component:           1
  1.158   5.300  -0.000  -0.000  -0.000
  5.300  23.081  -0.000  -0.000  -0.000
 -0.000  -0.000  -0.466  -0.000  -0.000
 -0.000  -0.000  -0.000  -0.466  -0.000
 -0.000  -0.000  -0.000  -0.000  -0.466
 total augmentation occupancy for first ion, spin component:           1
  1.111  -0.015   0.000   0.000   0.000
 -0.015   0.000  -0.000   0.000   0.000
  0.000  -0.000   0.047   0.000   0.000
  0.000   0.000   0.000   0.047   0.000
  0.000   0.000   0.000  -0.000   0.047


------------------------ aborting loop because EDIFF is reached ----------------------------------------


    CHARGE:  cpu time    0.0155: real time    0.0156
    FORLOC:  cpu time    0.0005: real time    0.0005
    FORNL :  cpu time    0.0089: real time    0.0090
    STRESS:  cpu time    0.0495: real time    0.0497
    FORCOR:  cpu time    0.0114: real time    0.0115
    FORHAR:  cpu time    0.0030: real time    0.0030
    MIXING:  cpu time    0.0006: real time    0.0006
    OFIELD:  cpu time    0.0000: real time    0.0000

  FORCE on cell =-STRESS in cart. coord.  units (eV):
  Direction    XX          YY          ZZ          XY          YZ          ZX
  --------------------------------------------------------------------------------------
  Alpha Z     0.52281     0.52281     0.52281
  Ewald     -10.20739   -10.20739   -10.20739     0.00000    -0.00000    -0.00000
  Hartree     0.01735     0.01735     0.01735    -0.00000    -0.00000    -0.00000
  E(xc)      -7.04856    -7.04856    -7.04856     0.00000    -0.00000     0.00000
  Local       0.54905     0.54905     0.54905     0.00000     0.00000     0.00000
  n-local     5.38686     6.14681     6.64210     0.11931    -0.07786    -0.00760
  augment     0.26220     0.26220     0.26220     0.00000     0.00000     0.00000
  Kinetic    16.90660     8.56108     4.32926    -2.04631     1.77385     0.32821
  Fock        0.00000     0.00000     0.00000     0.00000     0.00000     0.00000
  -------------------------------------------------------------------------------------
  Total       0.08635     0.08635     0.08635    -0.00000     0.00000     0.00000
  in kB       1.72566     1.72566     1.72566    -0.00000     0.00000     0.00000
  external pressure =        1.73 kB  Pullay stress =        0.00 kB


 VOLUME and BASIS-vectors are now :
 -----------------------------------------------------------------------------
  energy-cutoff  :      400.00
  volume of cell :       80.17
      direct lattice vectors                 reciprocal lattice vectors
     4.311976630  0.000000000  0.000000000     0.231912203 -0.000000000  0.000000000
     0.000000000  4.311976630  0.000000000    -0.000000000  0.231912203  0.000000000
     0.000000000  0.000000000  4.311976630     0.000000000  0.000000000  0.231912203

  length of vectors
     4.311976630  4.311976630  4.311976630     0.231912203  0.231912203  0.231912203


 FORCES acting on ions
    electron-ion (+dipol)            ewald-force                    non-local-force                 convergence-correction
 -----------------------------------------------------------------------------------------------
   -.119E-09 -.119E-09 -.119E-09   0.150E-07 0.150E-07 0.150E-07   -.102E-24 -.103E-24 0.000E+00   -.865E-11 -.865E-11 -.865E-11
   -.119E-09 0.137E-07 0.137E-07   0.150E-07 -.150E-07 -.150E-07   -.205E-24 0.103E-24 0.000E+00   -.865E-11 0.865E-11 0.865E-11
   0.137E-07 -.119E-09 0.137E-07   -.150E-07 0.150E-07 -.150E-07   -.348E-25 0.155E-24 0.000E+00   0.865E-11 -.865E-11 0.865E-11
   0.137E-07 0.137E-07 -.119E-09   -.150E-07 -.150E-07 0.150E-07   0.292E-25 0.000E+00 0.000E+00   0.865E-11 0.865E-11 -.865E-11
 -----------------------------------------------------------------------------------------------
   0.272E-07 0.272E-07 0.272E-07   -.243E-16 -.797E-17 -.115E-16   -.313E-24 0.155E-24 0.000E+00   0.749E-14 0.749E-14 0.749E-14
 
 
 POSITION                                       TOTAL-FORCE (eV/Angst)
 -----------------------------------------------------------------------------------
      0.00000      0.00000      0.00000         0.000000      0.000000      0.000000
      0.00000      2.15599      2.15599         0.000000     -0.000000     -0.000000
      2.15599      0.00000      2.15599        -0.000000      0.000000     -0.000000
      2.15599      2.15599      0.00000        -0.000000     -0.000000      0.000000
 -----------------------------------------------------------------------------------
    total drift:                                0.000000      0.000000      0.000000


--------------------------------------------------------------------------------------------------------



  FREE ENERGIE OF THE ION-ELECTRON SYSTEM (eV)
  ---------------------------------------------------
  free  energy   TOTEN  =        -7.60937952 eV

  energy  without entropy=       -7.59977076  energy(sigma->0) =       -7.60457514
 


--------------------------------------------------------------------------------------------------------


    POTLOK:  cpu time    0.0138: real time    0.0139


--------------------------------------------------------------------------------------------------------


 stress matrix after NEB project (eV)
      0.08635     -0.00000      0.00000
     -0.00000      0.08635     -0.00000
     -0.00000      0.00000      0.08635
  FORCES: max atom, RMS     0.000000    0.000000
  FORCE total and by dimension    0.000000    0.000000
  Stress total and by dimension    0.149567    0.086352


--------------------------------------------------------------------------------------------------------


  
 reached required accuracy - stopping structural energy minimisation
     LOOP+:  cpu time    2.1280: real time    2.1413
    4ORBIT:  cpu time    0.0000: real time    0.0000

 total amount of memory used by VASP MPI-rank0    31386. kBytes
=======================================================================

   base      :      30000. kBytes
   nonl-proj :        317. kBytes
   fftplans  :        347. kBytes
   grid      :        481. kBytes
   one-center:          1. kBytes
   wavefun   :        240. kBytes
 
  
  
 General timing and accounting informations for this job:
 ========================================================
  
                  Total CPU time used (sec):        3.054
                            User time (sec):        2.967
                          System time (sec):        0.086
                         Elapsed time (sec):        3.208
  
                   Maximum memory used (kb):       39836.
                   Average memory used (kb):           0.
  
                          Minor page faults:         4239
                          Major page faults:            6
                 Voluntary context switches:          632
