 vasp.5.4.4.18Apr17-6-g9f103f2a35 (build Apr 13 2025 12:23:30) complex          
  
 executed on             LinuxIFC date 2025.04.17  14:00:12
 running on   16 total cores
 distrk:  each k-point on   16 cores,    1 groups
 distr:  one band on NCORES_PER_BAND=   4 cores,    4 groups


--------------------------------------------------------------------------------------------------------


 INCAR:
 POTCAR:    PAW_PBE O 08Apr2002                   
 POTCAR:    PAW_PBE Na 08Apr2002                  
 POTCAR:    PAW_PBE O 08Apr2002                   
   SHA256 =  818f92134a0a090dccd8ba1447fa70422a3b330e708bb4f08108d8ae51209ddf O/
   COPYR  = (c) Copyright 08Apr2002 Georg Kresse                                
   COPYR  = This file is part of the software VASP. Any use, copying, and all ot
   COPYR  = If you do not have a valid VASP license, you may not use, copy or di
   VRHFIN =O: s2p4                                                              
   LEXCH  = PE                                                                  
   EATOM  =   432.3788 eV,   31.7789 Ry                                         
                                                                                
   TITEL  = PAW_PBE O 08Apr2002                                                 
   LULTRA =        F    use ultrasoft PP ?                                      
   IUNSCR =        1    unscreen: 0-lin 1-nonlin 2-no                           
   RPACOR =    1.200    partial core radius                                     
   POMASS =   16.000; ZVAL   =    6.000    mass and valenz                      
   RCORE  =    1.520    outmost cutoff radius                                   
   RWIGS  =    1.550; RWIGS  =    0.820    wigner-seitz radius (au A)           
   ENMAX  =  400.000; ENMIN  =  300.000 eV                                      
   ICORE  =        2    local potential                                         
   LCOR   =        T    correct aug charges                                     
   LPAW   =        T    paw PP                                                  
   EAUG   =  605.392                                                            
   DEXC   =    0.000                                                            
   RMAX   =    1.553    core radius for proj-oper                               
   RAUG   =    1.300    factor for augmentation sphere                          
   RDEP   =    1.550    radius for radial grids                                 
   RDEPT  =    1.329    core radius for aug-charge                              
                                                                                
   Atomic configuration                                                         
    4 entries                                                                   
     n  l   j            E        occ.                                          
     1  0  0.50      -514.6923   2.0000                                         
     2  0  0.50       -23.9615   2.0000                                         
     2  1  0.50        -9.0305   4.0000                                         
     3  2  1.50        -9.5241   0.0000                                         
   Description                                                                  
     l       E           TYP  RCUT    TYP  RCUT                                 
     0    -23.9615318     23  1.200                                             
     0     -9.5240782     23  1.200                                             
     1     -9.0304911     23  1.520                                             
     1      8.1634956     23  1.520                                             
     2     -9.5240782      7  1.500                                             
  local pseudopotential read in
  partial core-charges read in
  partial kinetic energy density read in
  kinetic energy density of atom read in
  atomic valenz-charges read in
  non local Contribution for L=           0  read in
    real space projection operators read in
  non local Contribution for L=           0  read in
    real space projection operators read in
  non local Contribution for L=           1  read in
    real space projection operators read in
  non local Contribution for L=           1  read in
    real space projection operators read in
    PAW grid and wavefunctions read in
 
   number of l-projection  operators is LMAX  =           4
   number of lm-projection operators is LMMAX =           8
 
 POTCAR:    PAW_PBE Na 08Apr2002                  
   SHA256 =  28de979e29d3a0ce6b912090ec41d2d3fb15239b988ee49a7215736a384d2747 Na
   COPYR  = (c) Copyright 08Apr2002 Georg Kresse                                
   COPYR  = This file is part of the software VASP. Any use, copying, and all ot
   COPYR  = If you do not have a valid VASP license, you may not use, copy or di
   VRHFIN =Na: s1p0                                                             
   LEXCH  = PE                                                                  
   EATOM  =     5.1581 eV,    0.3791 Ry                                         
                                                                                
   TITEL  = PAW_PBE Na 08Apr2002                                                
   LULTRA =        F    use ultrasoft PP ?                                      
   IUNSCR =        1    unscreen: 0-lin 1-nonlin 2-no                           
   RPACOR =    1.800    partial core radius                                     
   POMASS =   22.990; ZVAL   =    1.000    mass and valenz                      
   RCORE  =    2.200    outmost cutoff radius                                   
   RWIGS  =    3.320; RWIGS  =    1.757    wigner-seitz radius (au A)           
   ENMAX  =  101.968; ENMIN  =   76.476 eV                                      
   ICORE  =        2    local potential                                         
   LCOR   =        T    correct aug charges                                     
   LPAW   =        T    paw PP                                                  
   EAUG   =  250.695                                                            
   DEXC   =    0.000                                                            
   RMAX   =    2.245    core radius for proj-oper                               
   RAUG   =    1.300    factor for augmentation sphere                          
   RDEP   =    2.259    radius for radial grids                                 
   RDEPT  =    2.115    core radius for aug-charge                              
                                                                                
   Atomic configuration                                                         
    6 entries                                                                   
     n  l   j            E        occ.                                          
     1  0  0.50     -1033.6933   2.0000                                         
     2  0  0.50       -56.7526   2.0000                                         
     2  1  1.50       -28.6721   6.0000                                         
     3  0  0.50        -2.7440   1.0000                                         
     3  1  0.50        -1.3606   0.0000                                         
     3  2  1.50        -1.3606   0.0000                                         
   Description                                                                  
     l       E           TYP  RCUT    TYP  RCUT                                 
     0     -2.7439560     23  2.200                                             
     0     27.2116520     23  2.200                                             
     1     -1.3605826     23  2.200                                             
     2     -1.3605826     23  2.200                                             
  local pseudopotential read in
  partial core-charges read in
  partial kinetic energy density read in
  atomic valenz-charges read in
  non local Contribution for L=           0  read in
    real space projection operators read in
  non local Contribution for L=           0  read in
    real space projection operators read in
  non local Contribution for L=           1  read in
    real space projection operators read in
    PAW grid and wavefunctions read in
 
   number of l-projection  operators is LMAX  =           3
   number of lm-projection operators is LMMAX =           5
 
  PAW_PBE O 08Apr2002                   :
 energy of atom  1       EATOM= -432.3788
 kinetic energy error for atom=    0.1156 (will be added to EATOM!!)
  PAW_PBE Na 08Apr2002                  :
 energy of atom  2       EATOM=   -5.1581
 kinetic energy error for atom=    0.0001 (will be added to EATOM!!)
 
 
 POSCAR: O  Na                                   
  positions in cartesian coordinates
  No initial velocities read in
 exchange correlation table for  LEXCH =        8
   RHO(1)=    0.500       N(1)  =     2000
   RHO(2)=  100.500       N(2)  =     4000

 VTST: version 3.2, (02/03/18)

 CHAIN: initializing optimizer
 
 OPT: Using VASP Conjugate-Gradient optimizer
 CHAIN: Read ICHAIN            0
 
 POSCAR: O  Na                                   
  positions in cartesian coordinates
  No initial velocities read in
 


--------------------------------------------------------------------------------------------------------


 ion  position               nearest neighbor table
   1  0.000  0.000  0.000-   9 2.41   7 2.41   8 2.41   6 2.41  10 2.41  11 2.41  12 2.41   5 2.41

   2  0.000  0.500  0.500-  10 2.41   5 2.41   8 2.41   7 2.41  11 2.41  12 2.41   9 2.41   6 2.41

   3  0.500  0.000  0.500-  11 2.41   5 2.41   8 2.41   6 2.41  10 2.41  12 2.41   9 2.41   7 2.41

   4  0.500  0.500  0.000-  12 2.41   5 2.41   7 2.41   6 2.41  11 2.41  10 2.41   9 2.41   8 2.41

   5  0.250  0.250  0.250-   2 2.41   3 2.41   4 2.41   1 2.41  10 2.79  11 2.79  12 2.79  12 2.79
                            11 2.79  10 2.79   6 3.94   7 3.94   8 3.94   6 3.94   8 3.94   7 3.94
   6  0.250  0.750  0.750-   3 2.41   4 2.41   1 2.41   2 2.41   9 2.79  11 2.79  12 2.79  11 2.79
                            12 2.79   9 2.79   7 3.94   8 3.94   5 3.94   7 3.94   5 3.94   5 3.94
   7  0.750  0.250  0.750-   2 2.41   4 2.41   1 2.41   3 2.41   9 2.79  10 2.79  12 2.79  10 2.79
                            12 2.79   9 2.79   6 3.94   8 3.94   5 3.94   6 3.94   5 3.94   5 3.94
   8  0.750  0.750  0.250-   2 2.41   3 2.41   1 2.41   4 2.41   9 2.79  10 2.79  11 2.79  10 2.79
                            11 2.79   9 2.79   6 3.94   7 3.94   5 3.94   6 3.94   5 3.94   5 3.94
   9  0.750  0.750  0.750-   1 2.41   2 2.41   3 2.41   4 2.41   6 2.79   7 2.79   8 2.79   7 2.79
                             8 2.79   6 2.79  10 3.94  11 3.94  12 3.94  10 3.94  11 3.94  11 3.94
  10  0.750  0.250  0.250-   2 2.41   3 2.41   4 2.41   1 2.41   5 2.79   7 2.79   8 2.79   5 2.79
                             7 2.79   8 2.79  12 3.94   9 3.94  11 3.94  11 3.94   9 3.94  12 3.94
  11  0.250  0.750  0.250-   3 2.41   2 2.41   4 2.41   1 2.41   5 2.79   6 2.79   8 2.79   5 2.79
                             6 2.79   8 2.79  12 3.94   9 3.94  10 3.94  10 3.94   9 3.94  12 3.94
  12  0.250  0.250  0.750-   4 2.41   3 2.41   2 2.41   1 2.41   5 2.79   6 2.79   7 2.79   5 2.79
                             6 2.79   7 2.79  11 3.94   9 3.94  10 3.94  10 3.94   9 3.94  11 3.94
 
  LATTYP: Found a simple cubic cell.
 ALAT       =     5.5731565045
  
  Lattice vectors:
  
 A1 = (   5.5731565045,   0.0000000000,   0.0000000000)
 A2 = (   0.0000000000,   5.5731565045,   0.0000000000)
 A3 = (   0.0000000000,   0.0000000000,   5.5731565045)


Analysis of symmetry for initial positions (statically):
=====================================================================
 Subroutine PRICEL returns following result:
 
  LATTYP: Found a face centered cubic cell.
 ALAT       =     5.5731565045
  
  Lattice vectors:
  
 A1 = (   2.7865782523,   2.7865782523,  -0.0000000000)
 A2 = (   2.7865782523,   0.0000000000,  -2.7865782523)
 A3 = (   0.0000000000,   2.7865782523,  -2.7865782523)
 
   4 primitive cells build up your supercell.
 

 Routine SETGRP: Setting up the symmetry group for a 
 simple cubic supercell.


 Subroutine GETGRP returns: Found 48 space group operations
 (whereof 48 operations were pure point group operations)
 out of a pool of 48 trial point group operations.


The static configuration has the point symmetry O_h .


Analysis of symmetry for dynamics (positions and initial velocities):
=====================================================================
 Subroutine PRICEL returns following result:
 
  LATTYP: Found a face centered cubic cell.
 ALAT       =     5.5731565045
  
  Lattice vectors:
  
 A1 = (   2.7865782523,   2.7865782523,  -0.0000000000)
 A2 = (   2.7865782523,   0.0000000000,  -2.7865782523)
 A3 = (   0.0000000000,   2.7865782523,  -2.7865782523)
 
   4 primitive cells build up your supercell.
 

 Routine SETGRP: Setting up the symmetry group for a 
 simple cubic supercell.


 Subroutine GETGRP returns: Found 48 space group operations
 (whereof 48 operations were pure point group operations)
 out of a pool of 48 trial point group operations.


The dynamic configuration has the point symmetry O_h .


 Subroutine INISYM returns: Found 48 space group operations
 (whereof 48 operations are pure point group operations),
 and found     4 'primitive' translations

 
 
 KPOINTS: KPOINTS created by Atomic Simulation Env

Automatic generation of k-mesh.
Space group operators:
 irot       det(A)        alpha          n_x          n_y          n_z        tau_x        tau_y        tau_z
    1     1.000000     0.000000     1.000000     0.000000     0.000000     0.000000     0.000000     0.000000
    2    -1.000000     0.000000     1.000000     0.000000     0.000000     0.000000     0.000000     0.000000
    3     1.000000   120.000000    -0.577350    -0.577350    -0.577350     0.000000     0.000000     0.000000
    4    -1.000000   120.000000    -0.577350    -0.577350    -0.577350     0.000000     0.000000     0.000000
    5     1.000000   120.000000     0.577350     0.577350     0.577350     0.000000     0.000000     0.000000
    6    -1.000000   120.000000     0.577350     0.577350     0.577350     0.000000     0.000000     0.000000
    7     1.000000    90.000000     0.000000     0.000000    -1.000000     0.000000     0.000000     0.000000
    8    -1.000000    90.000000     0.000000     0.000000    -1.000000     0.000000     0.000000     0.000000
    9     1.000000   180.000000     0.000000     0.707107     0.707107     0.000000     0.000000     0.000000
   10    -1.000000   180.000000     0.000000     0.707107     0.707107     0.000000     0.000000     0.000000
   11     1.000000    90.000000     0.000000     1.000000     0.000000     0.000000     0.000000     0.000000
   12    -1.000000    90.000000     0.000000     1.000000     0.000000     0.000000     0.000000     0.000000
   13     1.000000   180.000000     0.000000     0.000000     1.000000     0.000000     0.000000     0.000000
   14    -1.000000   180.000000     0.000000     0.000000     1.000000     0.000000     0.000000     0.000000
   15     1.000000   120.000000    -0.577350     0.577350     0.577350     0.000000     0.000000     0.000000
   16    -1.000000   120.000000    -0.577350     0.577350     0.577350     0.000000     0.000000     0.000000
   17     1.000000   120.000000    -0.577350     0.577350    -0.577350     0.000000     0.000000     0.000000
   18    -1.000000   120.000000    -0.577350     0.577350    -0.577350     0.000000     0.000000     0.000000
   19     1.000000    90.000000     0.000000     0.000000     1.000000     0.000000     0.000000     0.000000
   20    -1.000000    90.000000     0.000000     0.000000     1.000000     0.000000     0.000000     0.000000
   21     1.000000    90.000000    -1.000000     0.000000     0.000000     0.000000     0.000000     0.000000
   22    -1.000000    90.000000    -1.000000     0.000000     0.000000     0.000000     0.000000     0.000000
   23     1.000000   180.000000     0.707107     0.000000     0.707107     0.000000     0.000000     0.000000
   24    -1.000000   180.000000     0.707107     0.000000     0.707107     0.000000     0.000000     0.000000
   25     1.000000   120.000000     0.577350    -0.577350     0.577350     0.000000     0.000000     0.000000
   26    -1.000000   120.000000     0.577350    -0.577350     0.577350     0.000000     0.000000     0.000000
   27     1.000000   120.000000    -0.577350    -0.577350     0.577350     0.000000     0.000000     0.000000
   28    -1.000000   120.000000    -0.577350    -0.577350     0.577350     0.000000     0.000000     0.000000
   29     1.000000   180.000000     1.000000     0.000000     0.000000     0.000000     0.000000     0.000000
   30    -1.000000   180.000000     1.000000     0.000000     0.000000     0.000000     0.000000     0.000000
   31     1.000000    90.000000     0.000000    -1.000000     0.000000     0.000000     0.000000     0.000000
   32    -1.000000    90.000000     0.000000    -1.000000     0.000000     0.000000     0.000000     0.000000
   33     1.000000   180.000000     0.707107     0.707107     0.000000     0.000000     0.000000     0.000000
   34    -1.000000   180.000000     0.707107     0.707107     0.000000     0.000000     0.000000     0.000000
   35     1.000000    90.000000     1.000000     0.000000     0.000000     0.000000     0.000000     0.000000
   36    -1.000000    90.000000     1.000000     0.000000     0.000000     0.000000     0.000000     0.000000
   37     1.000000   120.000000     0.577350    -0.577350    -0.577350     0.000000     0.000000     0.000000
   38    -1.000000   120.000000     0.577350    -0.577350    -0.577350     0.000000     0.000000     0.000000
   39     1.000000   180.000000     0.000000     1.000000     0.000000     0.000000     0.000000     0.000000
   40    -1.000000   180.000000     0.000000     1.000000     0.000000     0.000000     0.000000     0.000000
   41     1.000000   120.000000     0.577350     0.577350    -0.577350     0.000000     0.000000     0.000000
   42    -1.000000   120.000000     0.577350     0.577350    -0.577350     0.000000     0.000000     0.000000
   43     1.000000   180.000000     0.000000    -0.707107     0.707107     0.000000     0.000000     0.000000
   44    -1.000000   180.000000     0.000000    -0.707107     0.707107     0.000000     0.000000     0.000000
   45     1.000000   180.000000     0.707107    -0.707107     0.000000     0.000000     0.000000     0.000000
   46    -1.000000   180.000000     0.707107    -0.707107     0.000000     0.000000     0.000000     0.000000
   47     1.000000   180.000000     0.707107     0.000000    -0.707107     0.000000     0.000000     0.000000
   48    -1.000000   180.000000     0.707107     0.000000    -0.707107     0.000000     0.000000     0.000000
 
 Subroutine IBZKPT returns following result:
 ===========================================
 
 Found     20 irreducible k-points:
 
 Following reciprocal coordinates:
            Coordinates               Weight
  0.000000  0.000000  0.000000      1.000000
  0.166667  0.000000  0.000000      6.000000
  0.333333  0.000000  0.000000      6.000000
  0.500000  0.000000  0.000000      3.000000
  0.166667  0.166667  0.000000     12.000000
  0.333333  0.166667  0.000000     24.000000
  0.500000  0.166667  0.000000     12.000000
  0.333333  0.333333  0.000000     12.000000
  0.500000  0.333333  0.000000     12.000000
  0.500000  0.500000  0.000000      3.000000
  0.166667  0.166667  0.166667      8.000000
  0.333333  0.166667  0.166667     24.000000
  0.500000  0.166667  0.166667     12.000000
  0.333333  0.333333  0.166667     24.000000
  0.500000  0.333333  0.166667     24.000000
  0.500000  0.500000  0.166667      6.000000
  0.333333  0.333333  0.333333      8.000000
  0.500000  0.333333  0.333333     12.000000
  0.500000  0.500000  0.333333      6.000000
  0.500000  0.500000  0.500000      1.000000
 
 Following cartesian coordinates:
            Coordinates               Weight
  0.000000  0.000000  0.000000      1.000000
  0.029905  0.000000  0.000000      6.000000
  0.059811  0.000000  0.000000      6.000000
  0.089716  0.000000  0.000000      3.000000
  0.029905  0.029905  0.000000     12.000000
  0.059811  0.029905  0.000000     24.000000
  0.089716  0.029905  0.000000     12.000000
  0.059811  0.059811  0.000000     12.000000
  0.089716  0.059811  0.000000     12.000000
  0.089716  0.089716  0.000000      3.000000
  0.029905  0.029905  0.029905      8.000000
  0.059811  0.029905  0.029905     24.000000
  0.089716  0.029905  0.029905     12.000000
  0.059811  0.059811  0.029905     24.000000
  0.089716  0.059811  0.029905     24.000000
  0.089716  0.089716  0.029905      6.000000
  0.059811  0.059811  0.059811      8.000000
  0.089716  0.059811  0.059811     12.000000
  0.089716  0.089716  0.059811      6.000000
  0.089716  0.089716  0.089716      1.000000
 


--------------------------------------------------------------------------------------------------------




 Dimension of arrays:
   k-points           NKPTS =     20   k-points in BZ     NKDIM =     20   number of bands    NBANDS=     24
   number of dos      NEDOS =    301   number of ions     NIONS =     12
   non local maximal  LDIM  =      4   non local SUM 2l+1 LMDIM =      8
   total plane-waves  NPLWV =  21952
   max r-space proj   IRMAX =      1   max aug-charges    IRDMAX=   6373
   dimension x,y,z NGX =    28 NGY =   28 NGZ =   28
   dimension x,y,z NGXF=    56 NGYF=   56 NGZF=   56
   support grid    NGXF=    56 NGYF=   56 NGZF=   56
   ions per type =               4   8
   NGX,Y,Z   is equivalent  to a cutoff of   8.35,  8.35,  8.35 a.u.
   NGXF,Y,Z  is equivalent  to a cutoff of  16.70, 16.70, 16.70 a.u.

 SYSTEM =  unknown system                          
 POSCAR =  O  Na                                   

 Startparameter for this run:
   NWRITE =      2    write-flag & timer
   PREC   = normal    normal or accurate (medium, high low for compatibility)
   ISTART =      0    job   : 0-new  1-cont  2-samecut
   ICHARG =      2    charge: 1-file 2-atom 10-const
   ISPIN  =      1    spin polarized calculation?
   LNONCOLLINEAR =      F non collinear calculations
   LSORBIT =      F    spin-orbit coupling
   INIWAV =      1    electr: 0-lowe 1-rand  2-diag
   LASPH  =      F    aspherical Exc in radial PAW
   METAGGA=      F    non-selfconsistent MetaGGA calc.

 Electronic Relaxation 1
   ENCUT  =  400.0 eV  29.40 Ry    5.42 a.u.   9.09  9.09  9.09*2*pi/ulx,y,z
   ENINI  =  400.0     initial cutoff
   ENAUG  =  605.4 eV  augmentation charge cutoff
   NELM   =     60;   NELMIN=  4; NELMDL= -5     # of ELM steps 
   EDIFF  = 0.1E-05   stopping-criterion for ELM
   LREAL  =      F    real-space projection
   NLSPLINE    = F    spline interpolate recip. space projectors
   LCOMPAT=      F    compatible to vasp.4.4
   GGA_COMPAT  = T    GGA compatible to vasp.4.4-vasp.4.6
   LMAXPAW     = -100 max onsite density
   LMAXMIX     =    2 max onsite mixed and CHGCAR
   VOSKOWN=      0    Vosko Wilk Nusair interpolation
   ROPT   =    0.00000   0.00000
 Ionic relaxation
   EDIFFG = 0.1E-01   stopping-criterion for IOM
   NSW    =     20    number of steps for IOM
   NBLOCK =      1;   KBLOCK =     20    inner block; outer block 
   IBRION =      2    ionic relax: 0-MD 1-quasi-New 2-CG
   NFREE  =      1    steps in history (QN), initial steepest desc. (CG)
   ISIF   =      3    stress and relaxation
   IWAVPR =     11    prediction:  0-non 1-charg 2-wave 3-comb
   ISYM   =      2    0-nonsym 1-usesym 2-fastsym
   LCORR  =      T    Harris-Foulkes like correction to forces

   POTIM  = 0.5000    time-step for ionic-motion
   TEIN   =    0.0    initial temperature
   TEBEG  =    0.0;   TEEND  =   0.0 temperature during run
   SMASS  =  -3.00    Nose mass-parameter (am)
   estimated Nose-frequenzy (Omega)   =  0.10E-29 period in steps =****** mass=  -0.710E-27a.u.
   SCALEE = 1.0000    scale energy and forces
   NPACO  =    256;   APACO  = 16.0  distance and # of slots for P.C.
   PSTRESS=    0.0 pullay stress

  Mass of Ions in am
   POMASS =  16.00 22.99
  Ionic Valenz
   ZVAL   =   6.00  1.00
  Atomic Wigner-Seitz radii
   RWIGS  =  -1.00 -1.00
  virtual crystal weights 
   VCA    =   1.00  1.00
   NELECT =      32.0000    total number of electrons
   NUPDOWN=      -1.0000    fix difference up-down

 DOS related values:
   EMIN   =  10.00;   EMAX   =-10.00  energy-range for DOS
   EFERMI =   0.00
   ISMEAR =     0;   SIGMA  =   0.10  broadening in eV -4-tet -1-fermi 0-gaus

 Electronic relaxation 2 (details)
   IALGO  =     38    algorithm
   LDIAG  =      T    sub-space diagonalisation (order eigenvalues)
   LSUBROT=      F    optimize rotation matrix (better conditioning)
   TURBO    =      0    0=normal 1=particle mesh
   IRESTART =      0    0=no restart 2=restart with 2 vectors
   NREBOOT  =      0    no. of reboots
   NMIN     =      0    reboot dimension
   EREF     =   0.00    reference energy to select bands
   IMIX   =      4    mixing-type and parameters
     AMIX     =   0.40;   BMIX     =  1.00
     AMIX_MAG =   1.60;   BMIX_MAG =  1.00
     AMIN     =   0.10
     WC   =   100.;   INIMIX=   1;  MIXPRE=   1;  MAXMIX= -45

 Intra band minimization:
   WEIMIN = 0.0010     energy-eigenvalue tresh-hold
   EBREAK =  0.10E-07  absolut break condition
   DEPER  =   0.30     relativ break condition  

   TIME   =   0.40     timestep for ELM

  volume/ion in A,a.u.               =      14.43        97.35
  Fermi-wavevector in a.u.,A,eV,Ry     =   0.932589  1.762338 11.833287  0.869722
  Thomas-Fermi vector in A             =   2.059202
 
 Write flags
   LWAVE        =      F    write WAVECAR
   LDOWNSAMPLE  =      F    k-point downsampling of WAVECAR
   LCHARG       =      F    write CHGCAR
   LVTOT        =      F    write LOCPOT, total local potential
   LVHAR        =      F    write LOCPOT, Hartree potential only
   LELF         =      F    write electronic localiz. function (ELF)
   LORBIT       =      0    0 simple, 1 ext, 2 COOP (PROOUT), +10 PAW based schemes


 Dipole corrections
   LMONO  =      F    monopole corrections only (constant potential shift)
   LDIPOL =      F    correct potential (dipole corrections)
   IDIPOL =      0    1-x, 2-y, 3-z, 4-all directions 
   EPSILON=  1.0000000 bulk dielectric constant

 Exchange correlation treatment:
   GGA     =    PE    GGA type
   LEXCH   =     8    internal setting for exchange type
   VOSKOWN=      0    Vosko Wilk Nusair interpolation
   LHFCALC =     F    Hartree Fock is set to
   LHFONE  =     F    Hartree Fock one center treatment
   AEXX    =    0.0000 exact exchange contribution

 Linear response parameters
   LEPSILON=     F    determine dielectric tensor
   LRPA    =     F    only Hartree local field effects (RPA)
   LNABLA  =     F    use nabla operator in PAW spheres
   LVEL    =     F    velocity operator in full k-point grid
   LINTERFAST=   F  fast interpolation
   KINTER  =     0    interpolate to denser k-point grid
   CSHIFT  =0.1000    complex shift for real part using Kramers Kronig
   OMEGAMAX=  -1.0    maximum frequency
   DEG_THRESHOLD= 0.2000000E-02 threshold for treating states as degnerate
   RTIME   =   -0.100 relaxation time in fs
  (WPLASMAI=    0.000 imaginary part of plasma frequency in eV, 0.658/RTIME)
   DFIELD  = 0.0000000 0.0000000 0.0000000 field for delta impulse in time
 
 Orbital magnetization related:
   ORBITALMAG=     F  switch on orbital magnetization
   LCHIMAG   =     F  perturbation theory with respect to B field
   DQ        =  0.001000  dq finite difference perturbation B field
   LLRAUG    =     F  two centre corrections for induced B field



--------------------------------------------------------------------------------------------------------


 conjugate gradient relaxation of ions
 charge density and potential will be updated during run
 non-spin polarized calculation
 Variant of blocked Davidson
 Davidson routine will perform the subspace rotation
 perform sub-space diagonalisation
    after iterative eigenvector-optimisation
 modified Broyden-mixing scheme, WC =      100.0
 initial mixing is a Kerker type mixing with AMIX =  0.4000 and BMIX =      1.0000
 Hartree-type preconditioning will be used
 using additional bands            8
 reciprocal scheme for non local part
 use partial core corrections
 calculate Harris-corrections to forces 
   (improved forces if not selfconsistent)
 use gradient corrections 
 use of overlap-Matrix (Vanderbilt PP)
 Gauss-broadening in eV      SIGMA  =   0.10


--------------------------------------------------------------------------------------------------------


  energy-cutoff  :      400.00
  volume of cell :      173.10
      direct lattice vectors                 reciprocal lattice vectors
     5.573156505  0.000000000  0.000000000     0.179431530  0.000000000  0.000000000
     0.000000000  5.573156505  0.000000000     0.000000000  0.179431530  0.000000000
     0.000000000  0.000000000  5.573156505     0.000000000  0.000000000  0.179431530

  length of vectors
     5.573156505  5.573156505  5.573156505     0.179431530  0.179431530  0.179431530


 
 k-points in units of 2pi/SCALE and weight: KPOINTS created by Atomic Simulation Env
   0.00000000  0.00000000  0.00000000       0.005
   0.02990526  0.00000000  0.00000000       0.028
   0.05981051  0.00000000  0.00000000       0.028
   0.08971577  0.00000000  0.00000000       0.014
   0.02990526  0.02990526  0.00000000       0.056
   0.05981051  0.02990526  0.00000000       0.111
   0.08971577  0.02990526  0.00000000       0.056
   0.05981051  0.05981051  0.00000000       0.056
   0.08971577  0.05981051  0.00000000       0.056
   0.08971577  0.08971577  0.00000000       0.014
   0.02990526  0.02990526  0.02990526       0.037
   0.05981051  0.02990526  0.02990526       0.111
   0.08971577  0.02990526  0.02990526       0.056
   0.05981051  0.05981051  0.02990526       0.111
   0.08971577  0.05981051  0.02990526       0.111
   0.08971577  0.08971577  0.02990526       0.028
   0.05981051  0.05981051  0.05981051       0.037
   0.08971577  0.05981051  0.05981051       0.056
   0.08971577  0.08971577  0.05981051       0.028
   0.08971577  0.08971577  0.08971577       0.005
 
 k-points in reciprocal lattice and weights: KPOINTS created by Atomic Simulation Env
   0.00000000  0.00000000  0.00000000       0.005
   0.16666667  0.00000000  0.00000000       0.028
   0.33333333  0.00000000  0.00000000       0.028
   0.50000000  0.00000000  0.00000000       0.014
   0.16666667  0.16666667  0.00000000       0.056
   0.33333333  0.16666667  0.00000000       0.111
   0.50000000  0.16666667  0.00000000       0.056
   0.33333333  0.33333333  0.00000000       0.056
   0.50000000  0.33333333  0.00000000       0.056
   0.50000000  0.50000000  0.00000000       0.014
   0.16666667  0.16666667  0.16666667       0.037
   0.33333333  0.16666667  0.16666667       0.111
   0.50000000  0.16666667  0.16666667       0.056
   0.33333333  0.33333333  0.16666667       0.111
   0.50000000  0.33333333  0.16666667       0.111
   0.50000000  0.50000000  0.16666667       0.028
   0.33333333  0.33333333  0.33333333       0.037
   0.50000000  0.33333333  0.33333333       0.056
   0.50000000  0.50000000  0.33333333       0.028
   0.50000000  0.50000000  0.50000000       0.005
 
 position of ions in fractional coordinates (direct lattice) 
   0.00000000  0.00000000  0.00000000
   0.00000000  0.50000000  0.50000000
   0.50000000  0.00000000  0.50000000
   0.50000000  0.50000000  0.00000000
   0.25000000  0.25000000  0.25000000
   0.25000000  0.75000000  0.75000000
   0.75000000  0.25000000  0.75000000
   0.75000000  0.75000000  0.25000000
   0.75000000  0.75000000  0.75000000
   0.75000000  0.25000000  0.25000000
   0.25000000  0.75000000  0.25000000
   0.25000000  0.25000000  0.75000000
 
 position of ions in cartesian coordinates  (Angst):
   0.00000000  0.00000000  0.00000000
   0.00000000  2.78657825  2.78657825
   2.78657825  0.00000000  2.78657825
   2.78657825  2.78657825  0.00000000
   1.39328913  1.39328913  1.39328913
   1.39328913  4.17986738  4.17986738
   4.17986738  1.39328913  4.17986738
   4.17986738  4.17986738  1.39328913
   4.17986738  4.17986738  4.17986738
   4.17986738  1.39328913  1.39328913
   1.39328913  4.17986738  1.39328913
   1.39328913  1.39328913  4.17986738
 


--------------------------------------------------------------------------------------------------------


 k-point  1 :   0.0000 0.0000 0.0000  plane waves:    3119
 k-point  2 :   0.1667 0.0000 0.0000  plane waves:    3118
 k-point  3 :   0.3333 0.0000 0.0000  plane waves:    3134
 k-point  4 :   0.5000 0.0000 0.0000  plane waves:    3178
 k-point  5 :   0.1667 0.1667 0.0000  plane waves:    3135
 k-point  6 :   0.3333 0.1667 0.0000  plane waves:    3137
 k-point  7 :   0.5000 0.1667 0.0000  plane waves:    3126
 k-point  8 :   0.3333 0.3333 0.0000  plane waves:    3145
 k-point  9 :   0.5000 0.3333 0.0000  plane waves:    3136
 k-point 10 :   0.5000 0.5000 0.0000  plane waves:    3168
 k-point 11 :   0.1667 0.1667 0.1667  plane waves:    3128
 k-point 12 :   0.3333 0.1667 0.1667  plane waves:    3141
 k-point 13 :   0.5000 0.1667 0.1667  plane waves:    3150
 k-point 14 :   0.3333 0.3333 0.1667  plane waves:    3159
 k-point 15 :   0.5000 0.3333 0.1667  plane waves:    3154
 k-point 16 :   0.5000 0.5000 0.1667  plane waves:    3168
 k-point 17 :   0.3333 0.3333 0.3333  plane waves:    3145
 k-point 18 :   0.5000 0.3333 0.3333  plane waves:    3150
 k-point 19 :   0.5000 0.5000 0.3333  plane waves:    3140
 k-point 20 :   0.5000 0.5000 0.5000  plane waves:    3112

 maximum and minimum number of plane-waves per node :       800      775

 maximum number of plane-waves:      3178
 maximum index in each direction: 
   IXMAX=    9   IYMAX=    9   IZMAX=    9
   IXMIN=   -9   IYMIN=   -9   IZMIN=   -9


 parallel 3D FFT for wavefunctions:
    minimum data exchange during FFTs selected (reduces bandwidth)
 parallel 3D FFT for charge:
    minimum data exchange during FFTs selected (reduces bandwidth)


 total amount of memory used by VASP MPI-rank0    35301. kBytes
=======================================================================

   base      :      30000. kBytes
   nonl-proj :       2190. kBytes
   fftplans  :        593. kBytes
   grid      :        943. kBytes
   one-center:          9. kBytes
   wavefun   :       1566. kBytes
 
     INWAV:  cpu time    0.0000: real time    0.0000
 Broyden mixing: mesh for mixing (old mesh)
   NGX = 19   NGY = 19   NGZ = 19
  (NGX  = 56   NGY  = 56   NGZ  = 56)
  gives a total of   6859 points

 initial charge density was supplied:
 charge density of overlapping atoms calculated
 number of electron      32.0000000 magnetization 
 keeping initial charge density in first step


--------------------------------------------------------------------------------------------------------


 Maximum index for augmentation-charges          385 (set IRDMAX)


--------------------------------------------------------------------------------------------------------


 First call to EWALD:  gamma=   0.318
 Maximum number of real-space cells 3x 3x 3
 Maximum number of reciprocal cells 3x 3x 3

    FEWALD:  cpu time    0.0020: real time    0.0020


--------------------------------------- Iteration      1(   1)  ---------------------------------------


    POTLOK:  cpu time    0.0348: real time    0.0356
    SETDIJ:  cpu time    0.0028: real time    0.0028
     EDDAV:  cpu time    0.7630: real time    0.7672
       DOS:  cpu time    0.0009: real time    0.0009
    --------------------------------------------
      LOOP:  cpu time    0.8016: real time    0.8065

 eigenvalue-minimisations  :   960
 total energy-change (2. order) : 0.2170313E+03  (-0.9835779E+03)
 number of electron      32.0000000 magnetization 
 augmentation part       32.0000000 magnetization 

 Free energy of the ion-electron system (eV)
  ---------------------------------------------------
  alpha Z        PSCENC =        -9.96256294
  Ewald energy   TEWEN  =     -1011.03508098
  -Hartree energ DENC   =      -693.68174859
  -exchange      EXHF   =         0.00000000
  -V(xc)+E(xc)   XCENC  =      -182.83623811
  PAW double counting   =      1705.20707623    -1412.33381051
  entropy T*S    EENTRO =        -0.01069781
  eigenvalues    EBANDS =        51.36717176
  atomic energy  EATOM  =      1770.31717976
  Solvation  Ediel_sol  =         0.00000000
  ---------------------------------------------------
  free energy    TOTEN  =       217.03128880 eV

  energy without entropy =      217.04198660  energy(sigma->0) =      217.03663770


--------------------------------------------------------------------------------------------------------




--------------------------------------- Iteration      1(   2)  ---------------------------------------


     EDDAV:  cpu time    0.9851: real time    0.9903
       DOS:  cpu time    0.0005: real time    0.0005
    --------------------------------------------
      LOOP:  cpu time    0.9856: real time    0.9908

 eigenvalue-minimisations  :  1296
 total energy-change (2. order) :-0.2325153E+03  (-0.2175749E+03)
 number of electron      32.0000000 magnetization 
 augmentation part       32.0000000 magnetization 

 Free energy of the ion-electron system (eV)
  ---------------------------------------------------
  alpha Z        PSCENC =        -9.96256294
  Ewald energy   TEWEN  =     -1011.03508098
  -Hartree energ DENC   =      -693.68174859
  -exchange      EXHF   =         0.00000000
  -V(xc)+E(xc)   XCENC  =      -182.83623811
  PAW double counting   =      1705.20707623    -1412.33381051
  entropy T*S    EENTRO =        -0.00000000
  eigenvalues    EBANDS =      -181.15878388
  atomic energy  EATOM  =      1770.31717976
  Solvation  Ediel_sol  =         0.00000000
  ---------------------------------------------------
  free energy    TOTEN  =       -15.48396904 eV

  energy without entropy =      -15.48396904  energy(sigma->0) =      -15.48396904


--------------------------------------------------------------------------------------------------------




--------------------------------------- Iteration      1(   3)  ---------------------------------------


     EDDAV:  cpu time    1.0200: real time    1.0255
       DOS:  cpu time    0.0005: real time    0.0005
    --------------------------------------------
      LOOP:  cpu time    1.0205: real time    1.0260

 eigenvalue-minimisations  :  1328
 total energy-change (2. order) :-0.4118213E+02  (-0.4059741E+02)
 number of electron      32.0000000 magnetization 
 augmentation part       32.0000000 magnetization 

 Free energy of the ion-electron system (eV)
  ---------------------------------------------------
  alpha Z        PSCENC =        -9.96256294
  Ewald energy   TEWEN  =     -1011.03508098
  -Hartree energ DENC   =      -693.68174859
  -exchange      EXHF   =         0.00000000
  -V(xc)+E(xc)   XCENC  =      -182.83623811
  PAW double counting   =      1705.20707623    -1412.33381051
  entropy T*S    EENTRO =        -0.00000000
  eigenvalues    EBANDS =      -222.34091869
  atomic energy  EATOM  =      1770.31717976
  Solvation  Ediel_sol  =         0.00000000
  ---------------------------------------------------
  free energy    TOTEN  =       -56.66610384 eV

  energy without entropy =      -56.66610384  energy(sigma->0) =      -56.66610384


--------------------------------------------------------------------------------------------------------




--------------------------------------- Iteration      1(   4)  ---------------------------------------


     EDDAV:  cpu time    0.8601: real time    0.8648
       DOS:  cpu time    0.0005: real time    0.0005
    --------------------------------------------
      LOOP:  cpu time    0.8606: real time    0.8653

 eigenvalue-minimisations  :  1104
 total energy-change (2. order) :-0.1109158E+01  (-0.1108449E+01)
 number of electron      32.0000000 magnetization 
 augmentation part       32.0000000 magnetization 

 Free energy of the ion-electron system (eV)
  ---------------------------------------------------
  alpha Z        PSCENC =        -9.96256294
  Ewald energy   TEWEN  =     -1011.03508098
  -Hartree energ DENC   =      -693.68174859
  -exchange      EXHF   =         0.00000000
  -V(xc)+E(xc)   XCENC  =      -182.83623811
  PAW double counting   =      1705.20707623    -1412.33381051
  entropy T*S    EENTRO =        -0.00000000
  eigenvalues    EBANDS =      -223.45007654
  atomic energy  EATOM  =      1770.31717976
  Solvation  Ediel_sol  =         0.00000000
  ---------------------------------------------------
  free energy    TOTEN  =       -57.77526170 eV

  energy without entropy =      -57.77526170  energy(sigma->0) =      -57.77526170


--------------------------------------------------------------------------------------------------------




--------------------------------------- Iteration      1(   5)  ---------------------------------------


     EDDAV:  cpu time    0.9367: real time    0.9419
       DOS:  cpu time    0.0006: real time    0.0006
    CHARGE:  cpu time    0.0575: real time    0.0578
    MIXING:  cpu time    0.0007: real time    0.0007
    --------------------------------------------
      LOOP:  cpu time    0.9954: real time    1.0009

 eigenvalue-minimisations  :  1208
 total energy-change (2. order) :-0.3252945E-01  (-0.3251314E-01)
 number of electron      32.0000536 magnetization 
 augmentation part        3.3580272 magnetization 

 Broyden mixing:
  rms(total) = 0.17955E+01    rms(broyden)= 0.17949E+01
  rms(prec ) = 0.38723E+01
  weight for this iteration     100.00

 Free energy of the ion-electron system (eV)
  ---------------------------------------------------
  alpha Z        PSCENC =        -9.96256294
  Ewald energy   TEWEN  =     -1011.03508098
  -Hartree energ DENC   =      -693.68174859
  -exchange      EXHF   =         0.00000000
  -V(xc)+E(xc)   XCENC  =      -182.83623811
  PAW double counting   =      1705.20707623    -1412.33381051
  entropy T*S    EENTRO =        -0.00000000
  eigenvalues    EBANDS =      -223.48260600
  atomic energy  EATOM  =      1770.31717976
  Solvation  Ediel_sol  =         0.00000000
  ---------------------------------------------------
  free energy    TOTEN  =       -57.80779115 eV

  energy without entropy =      -57.80779115  energy(sigma->0) =      -57.80779115


--------------------------------------------------------------------------------------------------------




--------------------------------------- Iteration      1(   6)  ---------------------------------------


    POTLOK:  cpu time    0.0184: real time    0.0187
    SETDIJ:  cpu time    0.0027: real time    0.0027
     EDDAV:  cpu time    0.8494: real time    0.8540
       DOS:  cpu time    0.0006: real time    0.0007
    CHARGE:  cpu time    0.0514: real time    0.0516
    MIXING:  cpu time    0.0007: real time    0.0007
    --------------------------------------------
      LOOP:  cpu time    0.9233: real time    0.9284

 eigenvalue-minimisations  :  1080
 total energy-change (2. order) : 0.1153654E+02  (-0.5811642E+01)
 number of electron      32.0000369 magnetization 
 augmentation part        2.3981995 magnetization 

 Broyden mixing:
  rms(total) = 0.90405E+00    rms(broyden)= 0.90280E+00
  rms(prec ) = 0.13550E+01
  weight for this iteration     100.00

 eigenvalues of (default mixing * dielectric matrix)
  average eigenvalue GAMMA=   0.6834
  0.6834

 Free energy of the ion-electron system (eV)
  ---------------------------------------------------
  alpha Z        PSCENC =        -9.96256294
  Ewald energy   TEWEN  =     -1011.03508098
  -Hartree energ DENC   =      -815.30927604
  -exchange      EXHF   =         0.00000000
  -V(xc)+E(xc)   XCENC  =      -174.89695870
  PAW double counting   =      2048.35177655    -1757.10735094
  entropy T*S    EENTRO =        -0.00000000
  eigenvalues    EBANDS =       -96.62897544
  atomic energy  EATOM  =      1770.31717976
  Solvation  Ediel_sol  =         0.00000000
  ---------------------------------------------------
  free energy    TOTEN  =       -46.27124874 eV

  energy without entropy =      -46.27124874  energy(sigma->0) =      -46.27124874


--------------------------------------------------------------------------------------------------------




--------------------------------------- Iteration      1(   7)  ---------------------------------------


    POTLOK:  cpu time    0.0181: real time    0.0184
    SETDIJ:  cpu time    0.0027: real time    0.0027
     EDDAV:  cpu time    0.7972: real time    0.8015
       DOS:  cpu time    0.0007: real time    0.0007
    CHARGE:  cpu time    0.0513: real time    0.0515
    MIXING:  cpu time    0.0008: real time    0.0008
    --------------------------------------------
      LOOP:  cpu time    0.8707: real time    0.8756

 eigenvalue-minimisations  :  1000
 total energy-change (2. order) : 0.6184843E+00  (-0.3408618E+00)
 number of electron      32.0000398 magnetization 
 augmentation part        2.5622786 magnetization 

 Broyden mixing:
  rms(total) = 0.36517E+00    rms(broyden)= 0.36516E+00
  rms(prec ) = 0.62966E+00
  weight for this iteration     100.00

 eigenvalues of (default mixing * dielectric matrix)
  average eigenvalue GAMMA=   1.6363
  0.8223  2.4503

 Free energy of the ion-electron system (eV)
  ---------------------------------------------------
  alpha Z        PSCENC =        -9.96256294
  Ewald energy   TEWEN  =     -1011.03508098
  -Hartree energ DENC   =      -799.30288631
  -exchange      EXHF   =         0.00000000
  -V(xc)+E(xc)   XCENC  =      -175.80170411
  PAW double counting   =      2071.85714902    -1780.03746214
  entropy T*S    EENTRO =        -0.00000000
  eigenvalues    EBANDS =      -111.68739672
  atomic energy  EATOM  =      1770.31717976
  Solvation  Ediel_sol  =         0.00000000
  ---------------------------------------------------
  free energy    TOTEN  =       -45.65276444 eV

  energy without entropy =      -45.65276444  energy(sigma->0) =      -45.65276444


--------------------------------------------------------------------------------------------------------




--------------------------------------- Iteration      1(   8)  ---------------------------------------


    POTLOK:  cpu time    0.0183: real time    0.0186
    SETDIJ:  cpu time    0.0027: real time    0.0027
     EDDAV:  cpu time    0.8182: real time    0.8226
       DOS:  cpu time    0.0007: real time    0.0007
    CHARGE:  cpu time    0.0514: real time    0.0517
    MIXING:  cpu time    0.0008: real time    0.0008
    --------------------------------------------
      LOOP:  cpu time    0.8921: real time    0.8971

 eigenvalue-minimisations  :  1032
 total energy-change (2. order) : 0.2235583E+00  (-0.4977503E-01)
 number of electron      32.0000399 magnetization 
 augmentation part        2.5716157 magnetization 

 Broyden mixing:
  rms(total) = 0.58769E-01    rms(broyden)= 0.58708E-01
  rms(prec ) = 0.78053E-01
  weight for this iteration     100.00

 eigenvalues of (default mixing * dielectric matrix)
  average eigenvalue GAMMA=   1.4402
  2.3139  0.8245  1.1820

 Free energy of the ion-electron system (eV)
  ---------------------------------------------------
  alpha Z        PSCENC =        -9.96256294
  Ewald energy   TEWEN  =     -1011.03508098
  -Hartree energ DENC   =      -810.46235266
  -exchange      EXHF   =         0.00000000
  -V(xc)+E(xc)   XCENC  =      -174.66960779
  PAW double counting   =      2194.88115715    -1902.69538583
  entropy T*S    EENTRO =        -0.00000000
  eigenvalues    EBANDS =      -101.80255280
  atomic energy  EATOM  =      1770.31717976
  Solvation  Ediel_sol  =         0.00000000
  ---------------------------------------------------
  free energy    TOTEN  =       -45.42920610 eV

  energy without entropy =      -45.42920610  energy(sigma->0) =      -45.42920610


--------------------------------------------------------------------------------------------------------




--------------------------------------- Iteration      1(   9)  ---------------------------------------


    POTLOK:  cpu time    0.0182: real time    0.0185
    SETDIJ:  cpu time    0.0027: real time    0.0027
     EDDAV:  cpu time    0.9003: real time    0.9051
       DOS:  cpu time    0.0006: real time    0.0006
    CHARGE:  cpu time    0.0517: real time    0.0520
    MIXING:  cpu time    0.0009: real time    0.0009
    --------------------------------------------
      LOOP:  cpu time    0.9745: real time    0.9797

 eigenvalue-minimisations  :  1152
 total energy-change (2. order) :-0.4100590E-02  (-0.1076300E-02)
 number of electron      32.0000398 magnetization 
 augmentation part        2.5625935 magnetization 

 Broyden mixing:
  rms(total) = 0.21834E-01    rms(broyden)= 0.21834E-01
  rms(prec ) = 0.36224E-01
  weight for this iteration     100.00

 eigenvalues of (default mixing * dielectric matrix)
  average eigenvalue GAMMA=   1.7882
  2.8857  2.4667  0.8353  0.9651

 Free energy of the ion-electron system (eV)
  ---------------------------------------------------
  alpha Z        PSCENC =        -9.96256294
  Ewald energy   TEWEN  =     -1011.03508098
  -Hartree energ DENC   =      -811.08379086
  -exchange      EXHF   =         0.00000000
  -V(xc)+E(xc)   XCENC  =      -174.63458815
  PAW double counting   =      2164.51099836    -1872.37889672
  entropy T*S    EENTRO =        -0.00000000
  eigenvalues    EBANDS =      -101.16656515
  atomic energy  EATOM  =      1770.31717976
  Solvation  Ediel_sol  =         0.00000000
  ---------------------------------------------------
  free energy    TOTEN  =       -45.43330669 eV

  energy without entropy =      -45.43330669  energy(sigma->0) =      -45.43330669


--------------------------------------------------------------------------------------------------------




--------------------------------------- Iteration      1(  10)  ---------------------------------------


    POTLOK:  cpu time    0.0186: real time    0.0188
    SETDIJ:  cpu time    0.0027: real time    0.0027
     EDDAV:  cpu time    0.8041: real time    0.8084
       DOS:  cpu time    0.0007: real time    0.0007
    CHARGE:  cpu time    0.0513: real time    0.0515
    MIXING:  cpu time    0.0009: real time    0.0009
    --------------------------------------------
      LOOP:  cpu time    0.8783: real time    0.8831

 eigenvalue-minimisations  :  1016
 total energy-change (2. order) :-0.3858519E-02  (-0.3159641E-03)
 number of electron      32.0000398 magnetization 
 augmentation part        2.5639067 magnetization 

 Broyden mixing:
  rms(total) = 0.46826E-02    rms(broyden)= 0.46800E-02
  rms(prec ) = 0.72259E-02
  weight for this iteration     100.00

 eigenvalues of (default mixing * dielectric matrix)
  average eigenvalue GAMMA=   1.5819
  2.9395  2.4076  0.8816  0.8816  0.7995

 Free energy of the ion-electron system (eV)
  ---------------------------------------------------
  alpha Z        PSCENC =        -9.96256294
  Ewald energy   TEWEN  =     -1011.03508098
  -Hartree energ DENC   =      -811.28719867
  -exchange      EXHF   =         0.00000000
  -V(xc)+E(xc)   XCENC  =      -174.59255789
  PAW double counting   =      2140.29941906    -1848.17530291
  entropy T*S    EENTRO =        -0.00000000
  eigenvalues    EBANDS =      -101.00106064
  atomic energy  EATOM  =      1770.31717976
  Solvation  Ediel_sol  =         0.00000000
  ---------------------------------------------------
  free energy    TOTEN  =       -45.43716521 eV

  energy without entropy =      -45.43716521  energy(sigma->0) =      -45.43716521


--------------------------------------------------------------------------------------------------------




--------------------------------------- Iteration      1(  11)  ---------------------------------------


    POTLOK:  cpu time    0.0180: real time    0.0185
    SETDIJ:  cpu time    0.0027: real time    0.0027
     EDDAV:  cpu time    0.9126: real time    0.9176
       DOS:  cpu time    0.0007: real time    0.0007
    CHARGE:  cpu time    0.0513: real time    0.0515
    MIXING:  cpu time    0.0010: real time    0.0010
    --------------------------------------------
      LOOP:  cpu time    0.9863: real time    0.9920

 eigenvalue-minimisations  :  1176
 total energy-change (2. order) :-0.6306997E-04  (-0.7605351E-05)
 number of electron      32.0000398 magnetization 
 augmentation part        2.5643678 magnetization 

 Broyden mixing:
  rms(total) = 0.22971E-02    rms(broyden)= 0.22959E-02
  rms(prec ) = 0.37771E-02
  weight for this iteration     100.00

 eigenvalues of (default mixing * dielectric matrix)
  average eigenvalue GAMMA=   1.9422
  3.6843  2.7520  2.4253  0.8310  0.9803  0.9803

 Free energy of the ion-electron system (eV)
  ---------------------------------------------------
  alpha Z        PSCENC =        -9.96256294
  Ewald energy   TEWEN  =     -1011.03508098
  -Hartree energ DENC   =      -811.29898339
  -exchange      EXHF   =         0.00000000
  -V(xc)+E(xc)   XCENC  =      -174.59246838
  PAW double counting   =      2141.44722307    -1849.32118452
  entropy T*S    EENTRO =        -0.00000000
  eigenvalues    EBANDS =      -100.99135091
  atomic energy  EATOM  =      1770.31717976
  Solvation  Ediel_sol  =         0.00000000
  ---------------------------------------------------
  free energy    TOTEN  =       -45.43722828 eV

  energy without entropy =      -45.43722828  energy(sigma->0) =      -45.43722828


--------------------------------------------------------------------------------------------------------




--------------------------------------- Iteration      1(  12)  ---------------------------------------


    POTLOK:  cpu time    0.0183: real time    0.0185
    SETDIJ:  cpu time    0.0027: real time    0.0027
     EDDAV:  cpu time    0.8176: real time    0.8221
       DOS:  cpu time    0.0007: real time    0.0007
    CHARGE:  cpu time    0.0516: real time    0.0519
    MIXING:  cpu time    0.0011: real time    0.0011
    --------------------------------------------
      LOOP:  cpu time    0.8920: real time    0.8970

 eigenvalue-minimisations  :  1032
 total energy-change (2. order) :-0.5140832E-04  (-0.9759578E-05)
 number of electron      32.0000398 magnetization 
 augmentation part        2.5648165 magnetization 

 Broyden mixing:
  rms(total) = 0.61350E-03    rms(broyden)= 0.61174E-03
  rms(prec ) = 0.89333E-03
  weight for this iteration     100.00

 eigenvalues of (default mixing * dielectric matrix)
  average eigenvalue GAMMA=   1.8563
  3.2405  2.3905  2.3905  2.1434  0.8317  0.9769  1.0206

 Free energy of the ion-electron system (eV)
  ---------------------------------------------------
  alpha Z        PSCENC =        -9.96256294
  Ewald energy   TEWEN  =     -1011.03508098
  -Hartree energ DENC   =      -811.34558727
  -exchange      EXHF   =         0.00000000
  -V(xc)+E(xc)   XCENC  =      -174.59738754
  PAW double counting   =      2144.12019283    -1851.99311320
  entropy T*S    EENTRO =        -0.00000000
  eigenvalues    EBANDS =      -100.94092035
  atomic energy  EATOM  =      1770.31717976
  Solvation  Ediel_sol  =         0.00000000
  ---------------------------------------------------
  free energy    TOTEN  =       -45.43727969 eV

  energy without entropy =      -45.43727969  energy(sigma->0) =      -45.43727969


--------------------------------------------------------------------------------------------------------




--------------------------------------- Iteration      1(  13)  ---------------------------------------


    POTLOK:  cpu time    0.0181: real time    0.0185
    SETDIJ:  cpu time    0.0027: real time    0.0027
     EDDAV:  cpu time    0.8166: real time    0.8211
       DOS:  cpu time    0.0006: real time    0.0006
    CHARGE:  cpu time    0.0516: real time    0.0519
    MIXING:  cpu time    0.0012: real time    0.0012
    --------------------------------------------
      LOOP:  cpu time    0.8908: real time    0.8959

 eigenvalue-minimisations  :  1008
 total energy-change (2. order) :-0.2494085E-05  (-0.4046216E-06)
 number of electron      32.0000398 magnetization 
 augmentation part        2.5647250 magnetization 

 Broyden mixing:
  rms(total) = 0.13986E-03    rms(broyden)= 0.13982E-03
  rms(prec ) = 0.22504E-03
  weight for this iteration     100.00

 eigenvalues of (default mixing * dielectric matrix)
  average eigenvalue GAMMA=   1.8675
  3.3908  2.7935  2.4952  2.4952  0.8319  1.0108  1.0108  0.9121

 Free energy of the ion-electron system (eV)
  ---------------------------------------------------
  alpha Z        PSCENC =        -9.96256294
  Ewald energy   TEWEN  =     -1011.03508098
  -Hartree energ DENC   =      -811.34811665
  -exchange      EXHF   =         0.00000000
  -V(xc)+E(xc)   XCENC  =      -174.59623642
  PAW double counting   =      2143.63725946    -1851.51023825
  entropy T*S    EENTRO =        -0.00000000
  eigenvalues    EBANDS =      -100.93948616
  atomic energy  EATOM  =      1770.31717976
  Solvation  Ediel_sol  =         0.00000000
  ---------------------------------------------------
  free energy    TOTEN  =       -45.43728218 eV

  energy without entropy =      -45.43728218  energy(sigma->0) =      -45.43728218


--------------------------------------------------------------------------------------------------------




--------------------------------------- Iteration      1(  14)  ---------------------------------------


    POTLOK:  cpu time    0.0184: real time    0.0186
    SETDIJ:  cpu time    0.0027: real time    0.0027
     EDDAV:  cpu time    0.7020: real time    0.7058
       DOS:  cpu time    0.0006: real time    0.0006
    --------------------------------------------
      LOOP:  cpu time    0.7236: real time    0.7277

 eigenvalue-minimisations  :   792
 total energy-change (2. order) :-0.2639406E-06  (-0.3938720E-07)
 number of electron      32.0000398 magnetization 
 augmentation part        2.5647250 magnetization 

 Free energy of the ion-electron system (eV)
  ---------------------------------------------------
  alpha Z        PSCENC =        -9.96256294
  Ewald energy   TEWEN  =     -1011.03508098
  -Hartree energ DENC   =      -811.35083045
  -exchange      EXHF   =         0.00000000
  -V(xc)+E(xc)   XCENC  =      -174.59660162
  PAW double counting   =      2143.53680020    -1851.40988341
  entropy T*S    EENTRO =        -0.00000000
  eigenvalues    EBANDS =      -100.93630301
  atomic energy  EATOM  =      1770.31717976
  Solvation  Ediel_sol  =         0.00000000
  ---------------------------------------------------
  free energy    TOTEN  =       -45.43728245 eV

  energy without entropy =      -45.43728245  energy(sigma->0) =      -45.43728245


--------------------------------------------------------------------------------------------------------




 average (electrostatic) potential at core
  the test charge radii are     0.7215  1.1212
  (the norm of the test charge is              1.0000)
       1 -71.3264       2 -71.3264       3 -71.3264       4 -71.3264       5 -40.6558
       6 -40.6558       7 -40.6558       8 -40.6558       9 -40.6558      10 -40.6558
      11 -40.6558      12 -40.6558
 
 
 
 E-fermi :   1.3127     XC(G=0):  -8.4170     alpha+bet :-10.2212


 k-point     1 :       0.0000    0.0000    0.0000
  band No.  band energies     occupation 
      1     -13.7819      2.00000
      2     -13.5959      2.00000
      3     -13.5959      2.00000
      4     -13.5959      2.00000
      5      -0.3252      2.00000
      6      -0.3252      2.00000
      7      -0.3252      2.00000
      8       0.5810      2.00000
      9       0.5810      2.00000
     10       0.5810      2.00000
     11       0.5810      2.00000
     12       0.5810      2.00000
     13       0.5810      2.00000
     14       0.8528      2.00000
     15       0.8528      2.00000
     16       0.8528      2.00000
     17       2.7696      0.00000
     18       5.5422      0.00000
     19       5.5422      0.00000
     20       5.5422      0.00000
     21       9.6980      0.00000
     22       9.6980      0.00000
     23       9.6980      0.00000
     24      11.1083      0.00000

 k-point     2 :       0.1667    0.0000    0.0000
  band No.  band energies     occupation 
      1     -13.7715      2.00000
      2     -13.6080      2.00000
      3     -13.5947      2.00000
      4     -13.5947      2.00000
      5      -0.3081      2.00000
      6      -0.2674      2.00000
      7      -0.2674      2.00000
      8       0.5166      2.00000
      9       0.5166      2.00000
     10       0.5512      2.00000
     11       0.5512      2.00000
     12       0.5985      2.00000
     13       0.5985      2.00000
     14       0.6233      2.00000
     15       0.8309      2.00000
     16       0.8309      2.00000
     17       3.1376      0.00000
     18       5.5431      0.00000
     19       5.7068      0.00000
     20       5.7068      0.00000
     21       9.5830      0.00000
     22       9.7234      0.00000
     23       9.7234      0.00000
     24      10.7275      0.00000

 k-point     3 :       0.3333    0.0000    0.0000
  band No.  band energies     occupation 
      1     -13.7374      2.00000
      2     -13.6430      2.00000
      3     -13.5940      2.00000
      4     -13.5940      2.00000
      5      -0.2368      2.00000
      6      -0.1095      2.00000
      7      -0.1095      2.00000
      8       0.2403      2.00000
      9       0.3438      2.00000
     10       0.3438      2.00000
     11       0.4880      2.00000
     12       0.4880      2.00000
     13       0.6448      2.00000
     14       0.6448      2.00000
     15       0.7785      2.00000
     16       0.7785      2.00000
     17       3.9207      0.00000
     18       5.3546      0.00000
     19       6.0772      0.00000
     20       6.0772      0.00000
     21       9.6244      0.00000
     22       9.8042      0.00000
     23       9.8042      0.00000
     24      10.2745      0.00000

 k-point     4 :       0.5000    0.0000    0.0000
  band No.  band energies     occupation 
      1     -13.6915      2.00000
      2     -13.6915      2.00000
      3     -13.5939      2.00000
      4     -13.5939      2.00000
      5      -0.0645      2.00000
      6      -0.0645      2.00000
      7       0.1129      2.00000
      8       0.1129      2.00000
      9       0.1129      2.00000
     10       0.1129      2.00000
     11       0.4579      2.00000
     12       0.4579      2.00000
     13       0.7092      2.00000
     14       0.7092      2.00000
     15       0.7092      2.00000
     16       0.7092      2.00000
     17       4.7556      0.00000
     18       4.7556      0.00000
     19       6.2935      0.00000
     20       6.2935      0.00000
     21       9.9739      0.00000
     22       9.9739      0.00000
     23       9.9739      0.00000
     24       9.9739      0.00000

 k-point     5 :       0.1667    0.1667    0.0000
  band No.  band energies     occupation 
      1     -13.7604      2.00000
      2     -13.6067      2.00000
      3     -13.6067      2.00000
      4     -13.5953      2.00000
      5      -0.2695      2.00000
      6      -0.2695      2.00000
      7      -0.2129      2.00000
      8       0.3681      2.00000
      9       0.4322      2.00000
     10       0.5371      2.00000
     11       0.5371      2.00000
     12       0.5813      2.00000
     13       0.5813      2.00000
     14       0.6186      2.00000
     15       0.8071      2.00000
     16       0.8508      2.00000
     17       3.4350      0.00000
     18       5.7097      0.00000
     19       5.7097      0.00000
     20       5.8634      0.00000
     21       9.5505      0.00000
     22       9.5505      0.00000
     23       9.7502      0.00000
     24      10.1512      0.00000

 k-point     6 :       0.3333    0.1667    0.0000
  band No.  band energies     occupation 
      1     -13.7274      2.00000
      2     -13.6393      2.00000
      3     -13.6033      2.00000
      4     -13.5975      2.00000
      5      -0.2395      2.00000
      6      -0.1623      2.00000
      7      -0.0618      2.00000
      8       0.1223      2.00000
      9       0.1723      2.00000
     10       0.3721      2.00000
     11       0.5590      2.00000
     12       0.5919      2.00000
     13       0.6135      2.00000
     14       0.6571      2.00000
     15       0.7492      2.00000
     16       0.8207      2.00000
     17       4.1351      0.00000
     18       5.5232      0.00000
     19       6.1015      0.00000
     20       6.2132      0.00000
     21       9.4001      0.00000
     22       9.4950      0.00000
     23       9.5275      0.00000
     24       9.8408      0.00000

 k-point     7 :       0.5000    0.1667    0.0000
  band No.  band energies     occupation 
      1     -13.6830      2.00000
      2     -13.6830      2.00000
      3     -13.5999      2.00000
      4     -13.5999      2.00000
      5      -0.1168      2.00000
      6      -0.1168      2.00000
      7      -0.0099      2.00000
      8      -0.0099      2.00000
      9       0.1520      2.00000
     10       0.1520      2.00000
     11       0.5733      2.00000
     12       0.5733      2.00000
     13       0.6701      2.00000
     14       0.6701      2.00000
     15       0.7469      2.00000
     16       0.7469      2.00000
     17       4.9335      0.00000
     18       4.9335      0.00000
     19       6.3801      0.00000
     20       6.3801      0.00000
     21       9.2235      0.00000
     22       9.2235      0.00000
     23      10.0264      0.00000
     24      10.0264      0.00000

 k-point     8 :       0.3333    0.3333    0.0000
  band No.  band energies     occupation 
      1     -13.7010      2.00000
      2     -13.6293      2.00000
      3     -13.6293      2.00000
      4     -13.6064      2.00000
      5      -0.2295      2.00000
      6      -0.2295      2.00000
      7      -0.0771      2.00000
      8      -0.0328      2.00000
      9       0.0706      2.00000
     10       0.4506      2.00000
     11       0.4506      2.00000
     12       0.6674      2.00000
     13       0.6889      2.00000
     14       0.6889      2.00000
     15       0.7056      2.00000
     16       0.8436      2.00000
     17       4.6987      0.00000
     18       5.9576      0.00000
     19       5.9576      0.00000
     20       6.4783      0.00000
     21       8.8115      0.00000
     22       9.1827      0.00000
     23       9.1827      0.00000
     24       9.9587      0.00000

 k-point     9 :       0.5000    0.3333    0.0000
  band No.  band energies     occupation 
      1     -13.6650      2.00000
      2     -13.6650      2.00000
      3     -13.6171      2.00000
      4     -13.6171      2.00000
      5      -0.2102      2.00000
      6      -0.2102      2.00000
      7      -0.1691      2.00000
      8      -0.1691      2.00000
      9       0.2582      2.00000
     10       0.2582      2.00000
     11       0.5579      2.00000
     12       0.5579      2.00000
     13       0.7199      2.00000
     14       0.7199      2.00000
     15       0.7964      2.00000
     16       0.7964      2.00000
     17       5.4076      0.00000
     18       5.4076      0.00000
     19       6.4185      0.00000
     20       6.4185      0.00000
     21       8.7419      0.00000
     22       8.7419      0.00000
     23       9.6657      0.00000
     24       9.6657      0.00000

 k-point    10 :       0.5000    0.5000    0.0000
  band No.  band energies     occupation 
      1     -13.6414      2.00000
      2     -13.6414      2.00000
      3     -13.6414      2.00000
      4     -13.6414      2.00000
      5      -0.2417      2.00000
      6      -0.2417      2.00000
      7      -0.2417      2.00000
      8      -0.2417      2.00000
      9       0.4054      2.00000
     10       0.4054      2.00000
     11       0.4054      2.00000
     12       0.4054      2.00000
     13       0.7950      2.00000
     14       0.7950      2.00000
     15       0.7950      2.00000
     16       0.7950      2.00000
     17       6.0161      0.00000
     18       6.0161      0.00000
     19       6.0161      0.00000
     20       6.0161      0.00000
     21       9.0128      0.00000
     22       9.0128      0.00000
     23       9.0128      0.00000
     24       9.0128      0.00000

 k-point    11 :       0.1667    0.1667    0.1667
  band No.  band energies     occupation 
      1     -13.7491      2.00000
      2     -13.6062      2.00000
      3     -13.6062      2.00000
      4     -13.6062      2.00000
      5      -0.2417      2.00000
      6      -0.2417      2.00000
      7      -0.2417      2.00000
      8       0.2722      2.00000
      9       0.4314      2.00000
     10       0.4314      2.00000
     11       0.4314      2.00000
     12       0.6339      2.00000
     13       0.6339      2.00000
     14       0.6339      2.00000
     15       0.8349      2.00000
     16       0.8349      2.00000
     17       3.6906      0.00000
     18       5.8689      0.00000
     19       5.8689      0.00000
     20       5.8689      0.00000
     21       9.4385      0.00000
     22       9.4385      0.00000
     23       9.4385      0.00000
     24      10.4347      0.00000

 k-point    12 :       0.3333    0.1667    0.1667
  band No.  band energies     occupation 
      1     -13.7188      2.00000
      2     -13.6361      2.00000
      3     -13.6059      2.00000
      4     -13.6059      2.00000
      5      -0.2611      2.00000
      6      -0.1815      2.00000
      7      -0.1815      2.00000
      8       0.0069      2.00000
      9       0.3140      2.00000
     10       0.3140      2.00000
     11       0.5673      2.00000
     12       0.6377      2.00000
     13       0.6377      2.00000
     14       0.6752      2.00000
     15       0.7908      2.00000
     16       0.8072      2.00000
     17       4.3292      0.00000
     18       5.6831      0.00000
     19       6.2437      0.00000
     20       6.2437      0.00000
     21       9.0528      0.00000
     22       9.0528      0.00000
     23       9.3351      0.00000
     24      10.2156      0.00000

 k-point    13 :       0.5000    0.1667    0.1667
  band No.  band energies     occupation 
      1     -13.6776      2.00000
      2     -13.6776      2.00000
      3     -13.6056      2.00000
      4     -13.6056      2.00000
      5      -0.1864      2.00000
      6      -0.1864      2.00000
      7      -0.1480      2.00000
      8      -0.1480      2.00000
      9       0.2661      2.00000
     10       0.2661      2.00000
     11       0.6266      2.00000
     12       0.6266      2.00000
     13       0.7051      2.00000
     14       0.7051      2.00000
     15       0.7321      2.00000
     16       0.7321      2.00000
     17       5.0960      0.00000
     18       5.0960      0.00000
     19       6.4794      0.00000
     20       6.4794      0.00000
     21       8.7862      0.00000
     22       8.7862      0.00000
     23       9.8780      0.00000
     24       9.8781      0.00000

 k-point    14 :       0.3333    0.3333    0.1667
  band No.  band energies     occupation 
      1     -13.6941      2.00000
      2     -13.6297      2.00000
      3     -13.6297      2.00000
      4     -13.6120      2.00000
      5      -0.2991      2.00000
      6      -0.2991      2.00000
      7      -0.2444      2.00000
      8      -0.1851      2.00000
      9       0.3161      2.00000
     10       0.5009      2.00000
     11       0.5009      2.00000
     12       0.7045      2.00000
     13       0.7045      2.00000
     14       0.7156      2.00000
     15       0.7394      2.00000
     16       0.8352      2.00000
     17       4.8557      0.00000
     18       6.1020      0.00000
     19       6.1020      0.00000
     20       6.5510      0.00000
     21       8.4519      0.00000
     22       8.8252      0.00000
     23       8.8252      0.00000
     24      10.0198      0.00000

 k-point    15 :       0.5000    0.3333    0.1667
  band No.  band energies     occupation 
      1     -13.6618      2.00000
      2     -13.6618      2.00000
      3     -13.6203      2.00000
      4     -13.6203      2.00000
      5      -0.3040      2.00000
      6      -0.3040      2.00000
      7      -0.2989      2.00000
      8      -0.2989      2.00000
      9       0.4036      2.00000
     10       0.4036      2.00000
     11       0.6423      2.00000
     12       0.6423      2.00000
     13       0.7302      2.00000
     14       0.7302      2.00000
     15       0.7897      2.00000
     16       0.7897      2.00000
     17       5.5456      0.00000
     18       5.5456      0.00000
     19       6.5527      0.00000
     20       6.5527      0.00000
     21       8.3368      0.00000
     22       8.3368      0.00000
     23       9.2539      0.00000
     24       9.2539      0.00000

 k-point    16 :       0.5000    0.5000    0.1667
  band No.  band energies     occupation 
      1     -13.6410      2.00000
      2     -13.6410      2.00000
      3     -13.6410      2.00000
      4     -13.6410      2.00000
      5      -0.3559      2.00000
      6      -0.3559      2.00000
      7      -0.3559      2.00000
      8      -0.3559      2.00000
      9       0.5320      2.00000
     10       0.5320      2.00000
     11       0.5320      2.00000
     12       0.5320      2.00000
     13       0.7957      2.00000
     14       0.7957      2.00000
     15       0.7957      2.00000
     16       0.7957      2.00000
     17       6.1471      0.00000
     18       6.1471      0.00000
     19       6.1471      0.00000
     20       6.1471      0.00000
     21       8.5968      0.00000
     22       8.5968      0.00000
     23       8.5968      0.00000
     24       8.5968      0.00000

 k-point    17 :       0.3333    0.3333    0.3333
  band No.  band energies     occupation 
      1     -13.6747      2.00000
      2     -13.6290      2.00000
      3     -13.6290      2.00000
      4     -13.6290      2.00000
      5      -0.4122      2.00000
      6      -0.4122      2.00000
      7      -0.4122      2.00000
      8      -0.3590      2.00000
      9       0.5769      2.00000
     10       0.5769      2.00000
     11       0.5769      2.00000
     12       0.7413      2.00000
     13       0.7413      2.00000
     14       0.7413      2.00000
     15       0.8131      2.00000
     16       0.8131      2.00000
     17       5.3051      0.00000
     18       6.4904      0.00000
     19       6.4904      0.00000
     20       6.4904      0.00000
     21       8.1503      0.00000
     22       8.1503      0.00000
     23       8.1503      0.00000
     24       9.2527      0.00000

 k-point    18 :       0.5000    0.3333    0.3333
  band No.  band energies     occupation 
      1     -13.6523      2.00000
      2     -13.6523      2.00000
      3     -13.6281      2.00000
      4     -13.6281      2.00000
      5      -0.4600      2.00000
      6      -0.4600      2.00000
      7      -0.4524      2.00000
      8      -0.4524      2.00000
      9       0.6072      2.00000
     10       0.6072      2.00000
     11       0.7560      2.00000
     12       0.7560      2.00000
     13       0.7609      2.00000
     14       0.7609      2.00000
     15       0.7763      2.00000
     16       0.7763      2.00000
     17       5.9437      0.00000
     18       5.9437      0.00000
     19       6.8300      0.00000
     20       6.8300      0.00000
     21       7.7047      0.00000
     22       7.7047      0.00000
     23       8.5363      0.00000
     24       8.5363      0.00000

 k-point    19 :       0.5000    0.5000    0.3333
  band No.  band energies     occupation 
      1     -13.6396      2.00000
      2     -13.6396      2.00000
      3     -13.6396      2.00000
      4     -13.6396      2.00000
      5      -0.5181      2.00000
      6      -0.5181      2.00000
      7      -0.5181      2.00000
      8      -0.5181      2.00000
      9       0.7206      2.00000
     10       0.7206      2.00000
     11       0.7206      2.00000
     12       0.7206      2.00000
     13       0.7982      2.00000
     14       0.7982      2.00000
     15       0.7982      2.00000
     16       0.7982      2.00000
     17       6.5228      0.00000
     18       6.5228      0.00000
     19       6.5228      0.00000
     20       6.5228      0.00000
     21       7.8604      0.00000
     22       7.8604      0.00000
     23       7.8604      0.00000
     24       7.8604      0.00000

 k-point    20 :       0.5000    0.5000    0.5000
  band No.  band energies     occupation 
      1     -13.6387      2.00000
      2     -13.6387      2.00000
      3     -13.6387      2.00000
      4     -13.6387      2.00000
      5      -0.5827      2.00000
      6      -0.5827      2.00000
      7      -0.5827      2.00000
      8      -0.5827      2.00000
      9       0.7995      2.00000
     10       0.7995      2.00000
     11       0.7995      2.00000
     12       0.7995      2.00000
     13       0.7995      2.00000
     14       0.7995      2.00000
     15       0.7995      2.00000
     16       0.7995      2.00000
     17       6.9918      0.00000
     18       6.9918      0.00000
     19       6.9918      0.00000
     20       6.9918      0.00000
     21       7.2566      0.00000
     22       7.2566      0.00000
     23       7.2566      0.00000
     24       7.2566      0.00000


--------------------------------------------------------------------------------------------------------


 soft charge-density along one line, spin component           1
         0         1         2         3         4         5         6         7         8         9
 total charge-density along one line
 
 pseudopotential strength for first ion, spin component:           1
 12.371 -15.069  -0.000  -0.000  -0.000   0.000   0.000   0.000
-15.069  18.376   0.000   0.000   0.000  -0.000  -0.000  -0.000
 -0.000   0.000  -8.582   0.000   0.000  10.334  -0.000  -0.000
 -0.000   0.000   0.000  -8.582  -0.000  -0.000  10.334   0.000
 -0.000   0.000   0.000  -0.000  -8.582  -0.000   0.000  10.334
  0.000  -0.000  10.334  -0.000  -0.000 -12.298   0.000   0.000
  0.000  -0.000  -0.000  10.334   0.000   0.000 -12.298  -0.000
  0.000  -0.000  -0.000   0.000  10.334   0.000  -0.000 -12.298
 total augmentation occupancy for first ion, spin component:           1
  2.653   0.363   0.000   0.000   0.000   0.000   0.000   0.000
  0.363   0.053   0.000   0.000   0.000   0.000   0.000   0.000
  0.000   0.000   2.033   0.000   0.000   0.228   0.000  -0.000
  0.000   0.000   0.000   2.033  -0.000   0.000   0.228  -0.000
  0.000   0.000   0.000   0.000   2.033   0.000  -0.000   0.228
  0.000   0.000   0.228   0.000   0.000   0.026  -0.000  -0.000
  0.000   0.000  -0.000   0.228  -0.000  -0.000   0.026  -0.000
  0.000   0.000  -0.000   0.000   0.228  -0.000  -0.000   0.026


------------------------ aborting loop because EDIFF is reached ----------------------------------------


    CHARGE:  cpu time    0.0522: real time    0.0524
    FORLOC:  cpu time    0.0019: real time    0.0019
    FORNL :  cpu time    0.1321: real time    0.1326
    STRESS:  cpu time    0.3600: real time    0.3613
    FORCOR:  cpu time    0.0191: real time    0.0192
    FORHAR:  cpu time    0.0060: real time    0.0060
    MIXING:  cpu time    0.0011: real time    0.0011
    OFIELD:  cpu time    0.0000: real time    0.0000

  FORCE on cell =-STRESS in cart. coord.  units (eV):
  Direction    XX          YY          ZZ          XY          YZ          ZX
  --------------------------------------------------------------------------------------
[...]
     14       0.9527      2.00000
     15       1.0287      2.00000
     16       1.0287      2.00000
     17       5.8748      0.00000
     18       5.8748      0.00000
     19       6.8346      0.00000
     20       6.8346      0.00000
     21       9.3354      0.00000
     22       9.3354      0.00000
     23      10.2103      0.00000
     24      10.2103      0.00000

 k-point    10 :       0.5000    0.5000    0.0000
  band No.  band energies     occupation 
      1     -13.4367      2.00000
      2     -13.4367      2.00000
      3     -13.4367      2.00000
      4     -13.4367      2.00000
      5      -0.0464      2.00000
      6      -0.0464      2.00000
      7      -0.0464      2.00000
      8      -0.0464      2.00000
      9       0.6250      2.00000
     10       0.6250      2.00000
     11       0.6250      2.00000
     12       0.6250      2.00000
     13       1.0291      2.00000
     14       1.0291      2.00000
     15       1.0291      2.00000
     16       1.0291      2.00000
     17       6.4795      0.00000
     18       6.4795      0.00000
     19       6.4795      0.00000
     20       6.4795      0.00000
     21       9.5654      0.00000
     22       9.5654      0.00000
     23       9.5654      0.00000
     24       9.5654      0.00000

 k-point    11 :       0.1667    0.1667    0.1667
  band No.  band energies     occupation 
      1     -13.5599      2.00000
      2     -13.3968      2.00000
      3     -13.3968      2.00000
      4     -13.3968      2.00000
      5      -0.0490      2.00000
      6      -0.0490      2.00000
      7      -0.0490      2.00000
      8       0.4882      2.00000
      9       0.6551      2.00000
     10       0.6551      2.00000
     11       0.6551      2.00000
     12       0.8662      2.00000
     13       0.8662      2.00000
     14       0.8662      2.00000
     15       1.0636      2.00000
     16       1.0636      2.00000
     17       4.1297      0.00000
     18       6.2459      0.00000
     19       6.2459      0.00000
     20       6.2459      0.00000
     21      10.0682      0.00000
     22      10.0682      0.00000
     23      10.0682      0.00000
     24      11.0780      0.00000

 k-point    12 :       0.3333    0.1667    0.1667
  band No.  band energies     occupation 
      1     -13.5252      2.00000
      2     -13.4309      2.00000
      3     -13.3964      2.00000
      4     -13.3964      2.00000
      5      -0.0683      2.00000
      6       0.0148      2.00000
      7       0.0148      2.00000
      8       0.2130      2.00000
      9       0.5319      2.00000
     10       0.5319      2.00000
     11       0.7939      2.00000
     12       0.8695      2.00000
     13       0.8695      2.00000
     14       0.9068      2.00000
     15       1.0205      2.00000
     16       1.0368      2.00000
     17       4.7847      0.00000
     18       6.1134      0.00000
     19       6.6256      0.00000
     20       6.6256      0.00000
     21       9.6846      0.00000
     22       9.6846      0.00000
     23       9.9073      0.00000
     24      10.8525      0.00000

 k-point    13 :       0.5000    0.1667    0.1667
  band No.  band energies     occupation 
      1     -13.4780      2.00000
      2     -13.4780      2.00000
      3     -13.3960      2.00000
      4     -13.3960      2.00000
      5       0.0108      2.00000
      6       0.0108      2.00000
      7       0.0506      2.00000
      8       0.0506      2.00000
      9       0.4813      2.00000
     10       0.4813      2.00000
     11       0.8573      2.00000
     12       0.8573      2.00000
     13       0.9343      2.00000
     14       0.9343      2.00000
     15       0.9630      2.00000
     16       0.9630      2.00000
     17       5.5578      0.00000
     18       5.5578      0.00000
     19       6.8602      0.00000
     20       6.8602      0.00000
     21       9.4219      0.00000
     22       9.4219      0.00000
     23      10.4299      0.00000
     24      10.4299      0.00000

 k-point    14 :       0.3333    0.3333    0.1667
  band No.  band energies     occupation 
      1     -13.4970      2.00000
      2     -13.4234      2.00000
      3     -13.4234      2.00000
      4     -13.4033      2.00000
      5      -0.1070      2.00000
      6      -0.1070      2.00000
      7      -0.0500      2.00000
      8       0.0126      2.00000
      9       0.5334      2.00000
     10       0.7252      2.00000
     11       0.7252      2.00000
     12       0.9370      2.00000
     13       0.9370      2.00000
     14       0.9494      2.00000
     15       0.9685      2.00000
     16       1.0669      2.00000
     17       5.3247      0.00000
     18       6.5391      0.00000
     19       6.5391      0.00000
     20       6.9439      0.00000
     21       9.0814      0.00000
     22       9.4109      0.00000
     23       9.4109      0.00000
     24      10.6093      0.00000

 k-point    15 :       0.5000    0.3333    0.1667
  band No.  band energies     occupation 
      1     -13.4600      2.00000
      2     -13.4600      2.00000
      3     -13.4127      2.00000
      4     -13.4127      2.00000
      5      -0.1116      2.00000
      6      -0.1116      2.00000
      7      -0.1067      2.00000
      8      -0.1067      2.00000
      9       0.6239      2.00000
     10       0.6239      2.00000
     11       0.8702      2.00000
     12       0.8702      2.00000
     13       0.9633      2.00000
     14       0.9633      2.00000
     15       1.0222      2.00000
     16       1.0222      2.00000
     17       6.0187      0.00000
     18       6.0187      0.00000
     19       6.9738      0.00000
     20       6.9738      0.00000
     21       8.9431      0.00000
     22       8.9431      0.00000
     23       9.8209      0.00000
     24       9.8209      0.00000

 k-point    16 :       0.5000    0.5000    0.1667
  band No.  band energies     occupation 
      1     -13.4362      2.00000
      2     -13.4362      2.00000
      3     -13.4362      2.00000
      4     -13.4362      2.00000
      5      -0.1659      2.00000
      6      -0.1659      2.00000
      7      -0.1659      2.00000
      8      -0.1659      2.00000
      9       0.7567      2.00000
     10       0.7567      2.00000
     11       0.7567      2.00000
     12       0.7567      2.00000
     13       1.0298      2.00000
     14       1.0298      2.00000
     15       1.0298      2.00000
     16       1.0298      2.00000
     17       6.6175      0.00000
     18       6.6175      0.00000
     19       6.6175      0.00000
     20       6.6175      0.00000
     21       9.1650      0.00000
     22       9.1650      0.00000
     23       9.1650      0.00000
     24       9.1650      0.00000

 k-point    17 :       0.3333    0.3333    0.3333
  band No.  band energies     occupation 
      1     -13.4752      2.00000
      2     -13.4225      2.00000
      3     -13.4225      2.00000
      4     -13.4225      2.00000
      5      -0.2248      2.00000
      6      -0.2248      2.00000
      7      -0.2248      2.00000
      8      -0.1693      2.00000
      9       0.8037      2.00000
     10       0.8037      2.00000
     11       0.8037      2.00000
     12       0.9746      2.00000
     13       0.9746      2.00000
     14       0.9746      2.00000
     15       1.0444      2.00000
     16       1.0444      2.00000
     17       5.7869      0.00000
     18       6.9351      0.00000
     19       6.9351      0.00000
     20       6.9351      0.00000
     21       8.7457      0.00000
     22       8.7457      0.00000
     23       8.7457      0.00000
     24       9.8381      0.00000

 k-point    18 :       0.5000    0.3333    0.3333
  band No.  band energies     occupation 
      1     -13.4491      2.00000
      2     -13.4491      2.00000
      3     -13.4216      2.00000
      4     -13.4216      2.00000
      5      -0.2749      2.00000
      6      -0.2749      2.00000
      7      -0.2666      2.00000
      8      -0.2666      2.00000
      9       0.8346      2.00000
     10       0.8346      2.00000
     11       0.9879      2.00000
     12       0.9879      2.00000
     13       0.9945      2.00000
     14       0.9945      2.00000
     15       1.0089      2.00000
     16       1.0089      2.00000
     17       6.4300      0.00000
     18       6.4300      0.00000
     19       7.2607      0.00000
     20       7.2607      0.00000
     21       8.3193      0.00000
     22       8.3193      0.00000
     23       9.1074      0.00000
     24       9.1074      0.00000

 k-point    19 :       0.5000    0.5000    0.3333
  band No.  band energies     occupation 
      1     -13.4348      2.00000
      2     -13.4348      2.00000
      3     -13.4348      2.00000
      4     -13.4348      2.00000
      5      -0.3355      2.00000
      6      -0.3355      2.00000
      7      -0.3355      2.00000
      8      -0.3355      2.00000
      9       0.9518      2.00000
     10       0.9518      2.00000
     11       0.9518      2.00000
     12       0.9518      2.00000
     13       1.0318      2.00000
     14       1.0318      2.00000
     15       1.0318      2.00000
     16       1.0318      2.00000
     17       7.0083      0.00000
     18       7.0083      0.00000
     19       7.0083      0.00000
     20       7.0083      0.00000
     21       8.4315      0.00000
     22       8.4315      0.00000
     23       8.4315      0.00000
     24       8.4315      0.00000

 k-point    20 :       0.5000    0.5000    0.5000
  band No.  band energies     occupation 
      1     -13.4338      2.00000
      2     -13.4338      2.00000
      3     -13.4338      2.00000
      4     -13.4338      2.00000
      5      -0.4031      2.00000
      6      -0.4031      2.00000
      7      -0.4031      2.00000
      8      -0.4031      2.00000
      9       1.0328      2.00000
     10       1.0328      2.00000
     11       1.0328      2.00000
     12       1.0328      2.00000
     13       1.0328      2.00000
     14       1.0328      2.00000
     15       1.0328      2.00000
     16       1.0328      2.00000
     17       7.4499      0.00000
     18       7.4499      0.00000
     19       7.4499      0.00000
     20       7.4499      0.00000
     21       7.8605      0.00000
     22       7.8605      0.00000
     23       7.8605      0.00000
     24       7.8605      0.00000


--------------------------------------------------------------------------------------------------------


 soft charge-density along one line, spin component           1
         0         1         2         3         4         5         6         7         8         9
 total charge-density along one line
 
 pseudopotential strength for first ion, spin component:           1
 12.323 -15.006  -0.000  -0.000  -0.000   0.000   0.000   0.000
-15.006  18.295   0.000   0.000   0.000  -0.000  -0.000  -0.000
 -0.000   0.000  -8.513   0.000  -0.000  10.238  -0.000   0.000
 -0.000   0.000   0.000  -8.513  -0.000  -0.000  10.238   0.000
 -0.000   0.000  -0.000  -0.000  -8.513   0.000   0.000  10.238
  0.000  -0.000  10.238  -0.000   0.000 -12.161   0.000  -0.000
  0.000  -0.000  -0.000  10.238   0.000   0.000 -12.161  -0.000
  0.000  -0.000   0.000   0.000  10.238  -0.000  -0.000 -12.161
 total augmentation occupancy for first ion, spin component:           1
  2.628   0.354   0.000   0.000   0.000   0.000   0.000   0.000
  0.354   0.051   0.000   0.000   0.000   0.000   0.000   0.000
  0.000   0.000   2.038  -0.000   0.000   0.226  -0.000   0.000
  0.000   0.000  -0.000   2.038   0.000  -0.000   0.226  -0.000
  0.000   0.000   0.000   0.000   2.038   0.000  -0.000   0.226
  0.000   0.000   0.226  -0.000   0.000   0.026  -0.000   0.000
  0.000   0.000  -0.000   0.226  -0.000  -0.000   0.026  -0.000
  0.000   0.000   0.000  -0.000   0.226   0.000  -0.000   0.026


------------------------ aborting loop because EDIFF is reached ----------------------------------------


    CHARGE:  cpu time    0.0513: real time    0.0516
    FORLOC:  cpu time    0.0019: real time    0.0019
    FORNL :  cpu time    0.1331: real time    0.1336
    STRESS:  cpu time    0.3639: real time    0.3653
    FORCOR:  cpu time    0.0191: real time    0.0192
    FORHAR:  cpu time    0.0060: real time    0.0061
    MIXING:  cpu time    0.0008: real time    0.0008
    OFIELD:  cpu time    0.0000: real time    0.0000

  FORCE on cell =-STRESS in cart. coord.  units (eV):
  Direction    XX          YY          ZZ          XY          YZ          ZX
  --------------------------------------------------------------------------------------
  Alpha Z   -10.47925   -10.47925   -10.47925
  Ewald    -342.74038  -342.74038  -342.74038    -0.00000    -0.00000    -0.00000
  Hartree   266.98706   266.98706   266.98706    -0.00000    -0.00000    -0.00000
  E(xc)    -141.92680  -141.92680  -141.92680     0.00000     0.00000     0.00000
  Local    -275.67981  -275.67981  -275.67981     0.00000     0.00000    -0.00000
  n-local   -69.26385   -70.43685   -71.50319     0.26465     0.18275     0.12498
  augment    27.56160    27.56160    27.56160    -0.00000    -0.00000     0.00000
  Kinetic   540.73820   547.63546   551.64226    -1.19150    -0.90254    -0.58904
  Fock        0.00000     0.00000     0.00000     0.00000     0.00000     0.00000
  -------------------------------------------------------------------------------------
  Total      -0.00689    -0.00689    -0.00689    -0.00000     0.00000    -0.00000
  in kB      -0.06712    -0.06712    -0.06712    -0.00000     0.00000    -0.00000
  external pressure =       -0.07 kB  Pullay stress =        0.00 kB


 VOLUME and BASIS-vectors are now :
 -----------------------------------------------------------------------------
  energy-cutoff  :      400.00
  volume of cell :      164.57
      direct lattice vectors                 reciprocal lattice vectors
     5.480012163  0.000000000  0.000000000     0.182481347  0.000000000  0.000000000
    -0.000000000  5.480012163 -0.000000000    -0.000000000  0.182481347 -0.000000000
    -0.000000000  0.000000000  5.480012163    -0.000000000  0.000000000  0.182481347

  length of vectors
     5.480012163  5.480012163  5.480012163     0.182481347  0.182481347  0.182481347


 FORCES acting on ions
    electron-ion (+dipol)            ewald-force                    non-local-force                 convergence-correction
 -----------------------------------------------------------------------------------------------
   0.115E-07 0.115E-07 0.115E-07   -.715E-07 -.715E-07 -.715E-07   -.124E-23 0.248E-23 0.000E+00   -.120E-10 -.120E-10 -.120E-10
   0.115E-07 0.286E-05 0.286E-05   -.715E-07 0.205E-06 0.205E-06   0.155E-23 -.620E-24 -.414E-24   -.120E-10 -.147E-10 -.147E-10
   0.286E-05 0.115E-07 0.286E-05   0.205E-06 -.715E-07 0.205E-06   -.248E-23 -.165E-23 -.290E-23   -.147E-10 -.120E-10 -.147E-10
   0.286E-05 0.286E-05 0.115E-07   0.205E-06 0.205E-06 -.715E-07   -.413E-24 -.931E-24 0.165E-23   -.147E-10 -.147E-10 -.120E-10
   0.612E-07 0.612E-07 0.612E-07   -.540E-07 -.540E-07 -.540E-07   -.157E-17 -.407E-18 -.244E-17   -.296E-13 -.287E-13 -.299E-13
   0.612E-07 0.259E-07 0.259E-07   -.540E-07 -.130E-07 -.130E-07   -.244E-17 -.100E-17 0.152E-17   -.296E-13 0.159E-13 0.174E-13
   0.259E-07 0.612E-07 0.259E-07   -.130E-07 -.540E-07 -.130E-07   0.922E-18 -.136E-18 0.108E-17   0.169E-13 -.287E-13 0.174E-13
   0.259E-07 0.259E-07 0.612E-07   -.130E-07 -.130E-07 -.540E-07   0.211E-17 -.192E-17 -.271E-18   0.169E-13 0.159E-13 -.299E-13
   0.259E-07 0.259E-07 0.259E-07   -.130E-07 -.130E-07 -.130E-07   -.244E-17 0.629E-17 -.233E-17   0.169E-13 0.160E-13 0.172E-13
   0.259E-07 0.612E-07 0.612E-07   -.130E-07 -.540E-07 -.540E-07   -.455E-17 0.759E-18 -.163E-18   0.169E-13 -.286E-13 -.302E-13
   0.612E-07 0.259E-07 0.612E-07   -.540E-07 -.130E-07 -.540E-07   -.434E-17 0.553E-17 -.542E-19   -.296E-13 0.159E-13 -.302E-13
   0.612E-07 0.612E-07 0.259E-07   -.540E-07 -.540E-07 -.130E-07   -.439E-17 0.163E-17 -.233E-17   -.296E-13 -.287E-13 0.172E-13
 -----------------------------------------------------------------------------------------------
   0.608E-05 0.608E-05 0.608E-05   0.354E-14 -.706E-17 -.876E-15   -.167E-16 0.107E-16 -.499E-17   -.536E-10 -.536E-10 -.536E-10
 
 
 POSITION                                       TOTAL-FORCE (eV/Angst)
 -----------------------------------------------------------------------------------
      0.00000     -0.00000     -0.00000        -0.000000     -0.000000      0.000000
     -0.00000      2.74001      2.74001         0.000000      0.000000      0.000000
      2.74001      0.00000      2.74001        -0.000000      0.000000      0.000000
      2.74001      2.74001     -0.00000        -0.000000     -0.000000      0.000000
      1.37000      1.37000      1.37000         0.000000     -0.000000     -0.000000
      1.37000      4.11001      4.11001         0.000000     -0.000000     -0.000000
      4.11001      1.37000      4.11001         0.000000     -0.000000     -0.000000
      4.11001      4.11001      1.37000         0.000000     -0.000000     -0.000000
      4.11001      4.11001      4.11001         0.000000     -0.000000     -0.000000
      4.11001      1.37000      1.37000         0.000000     -0.000000     -0.000000
      1.37000      4.11001      1.37000         0.000000     -0.000000     -0.000000
      1.37000      1.37000      4.11001         0.000000     -0.000000     -0.000000
 -----------------------------------------------------------------------------------
    total drift:                                0.000006      0.000006      0.000006


--------------------------------------------------------------------------------------------------------



  FREE ENERGIE OF THE ION-ELECTRON SYSTEM (eV)
  ---------------------------------------------------
  free  energy   TOTEN  =       -45.52211797 eV

  energy  without entropy=      -45.52211797  energy(sigma->0) =      -45.52211797
 
 d Force = 0.0000000E+00[ 0.000E+00, 0.000E+00]  d Energy = 0.3686807E-02-0.369E-02
 d Force = 0.0000000E+00[ 0.000E+00, 0.000E+00]  d Ewald  = 0.3511333E+01-0.351E+01


--------------------------------------------------------------------------------------------------------


    POTLOK:  cpu time    0.0212: real time    0.0213


--------------------------------------------------------------------------------------------------------


 stress matrix after NEB project (eV)
     -0.00689      0.00000     -0.00000
     -0.00000     -0.00689      0.00000
      0.00000      0.00000     -0.00689
  FORCES: max atom, RMS     0.000000    0.000000
  FORCE total and by dimension    0.000000    0.000000
  Stress total and by dimension    0.011941    0.006894


--------------------------------------------------------------------------------------------------------


  
 reached required accuracy - stopping structural energy minimisation
     LOOP+:  cpu time    5.9844: real time    6.0192
    4ORBIT:  cpu time    0.0000: real time    0.0000

 total amount of memory used by VASP MPI-rank0    35301. kBytes
=======================================================================

   base      :      30000. kBytes
   nonl-proj :       2190. kBytes
   fftplans  :        593. kBytes
   grid      :        943. kBytes
   one-center:          9. kBytes
   wavefun   :       1566. kBytes
 
  
  
 General timing and accounting informations for this job:
 ========================================================
  
                  Total CPU time used (sec):       28.113
                            User time (sec):       27.463
                          System time (sec):        0.650
                         Elapsed time (sec):       28.413
  
                   Maximum memory used (kb):       45812.
                   Average memory used (kb):           0.
  
                          Minor page faults:        16502
                          Major page faults:           10
                 Voluntary context switches:          516
