 vasp.5.4.4.18Apr17-6-g9f103f2a35 (build Apr 13 2025 12:23:30) complex          
  
 executed on             LinuxIFC date 2025.04.17  14:00:13
 running on   16 total cores
 distrk:  each k-point on   16 cores,    1 groups
 distr:  one band on NCORES_PER_BAND=   4 cores,    4 groups


--------------------------------------------------------------------------------------------------------


 INCAR:
 POTCAR:    PAW_PBE O 08Apr2002                   
 POTCAR:    PAW_PBE H 15Jun2001                   
 POTCAR:    PAW_PBE O 08Apr2002                   
   SHA256 =  818f92134a0a090dccd8ba1447fa70422a3b330e708bb4f08108d8ae51209ddf O/
   COPYR  = (c) Copyright 08Apr2002 Georg Kresse                                
   COPYR  = This file is part of the software VASP. Any use, copying, and all ot
   COPYR  = If you do not have a valid VASP license, you may not use, copy or di
   VRHFIN =O: s2p4                                                              
   LEXCH  = PE                                                                  
   EATOM  =   432.3788 eV,   31.7789 Ry                                         
                                                                                
   TITEL  = PAW_PBE O 08Apr2002                                                 
   LULTRA =        F    use ultrasoft PP ?                                      
   IUNSCR =        1    unscreen: 0-lin 1-nonlin 2-no                           
   RPACOR =    1.200    partial core radius                                     
   POMASS =   16.000; ZVAL   =    6.000    mass and valenz                      
   RCORE  =    1.520    outmost cutoff radius                                   
   RWIGS  =    1.550; RWIGS  =    0.820    wigner-seitz radius (au A)           
   ENMAX  =  400.000; ENMIN  =  300.000 eV                                      
   ICORE  =        2    local potential                                         
   LCOR   =        T    correct aug charges                                     
   LPAW   =        T    paw PP                                                  
   EAUG   =  605.392                                                            
   DEXC   =    0.000                                                            
   RMAX   =    1.553    core radius for proj-oper                               
   RAUG   =    1.300    factor for augmentation sphere                          
   RDEP   =    1.550    radius for radial grids                                 
   RDEPT  =    1.329    core radius for aug-charge                              
                                                                                
   Atomic configuration                                                         
    4 entries                                                                   
     n  l   j            E        occ.                                          
     1  0  0.50      -514.6923   2.0000                                         
     2  0  0.50       -23.9615   2.0000                                         
     2  1  0.50        -9.0305   4.0000                                         
     3  2  1.50        -9.5241   0.0000                                         
   Description                                                                  
     l       E           TYP  RCUT    TYP  RCUT                                 
     0    -23.9615318     23  1.200                                             
     0     -9.5240782     23  1.200                                             
     1     -9.0304911     23  1.520                                             
     1      8.1634956     23  1.520                                             
     2     -9.5240782      7  1.500                                             
  local pseudopotential read in
  partial core-charges read in
  partial kinetic energy density read in
  kinetic energy density of atom read in
  atomic valenz-charges read in
  non local Contribution for L=           0  read in
    real space projection operators read in
  non local Contribution for L=           0  read in
    real space projection operators read in
  non local Contribution for L=           1  read in
    real space projection operators read in
  non local Contribution for L=           1  read in
    real space projection operators read in
    PAW grid and wavefunctions read in
 
   number of l-projection  operators is LMAX  =           4
   number of lm-projection operators is LMMAX =           8
 
 POTCAR:    PAW_PBE H 15Jun2001                   
   SHA256 =  030f79b5d3ab3cf0e668861823c8fb652ff669f3e15e46930bd03bfd63a607b6 H/
   COPYR  = (c) Copyright 15Jun2001 Georg Kresse                                
   COPYR  = This file is part of the software VASP. Any use, copying, and all ot
   COPYR  = If you do not have a valid VASP license, you may not use, copy or di
   VRHFIN =H: ultrasoft test                                                    
   LEXCH  = PE                                                                  
   EATOM  =    12.4884 eV,    0.9179 Ry                                         
                                                                                
   TITEL  = PAW_PBE H 15Jun2001                                                 
   LULTRA =        F    use ultrasoft PP ?                                      
   IUNSCR =        0    unscreen: 0-lin 1-nonlin 2-no                           
   RPACOR =    0.000    partial core radius                                     
   POMASS =    1.000; ZVAL   =    1.000    mass and valenz                      
   RCORE  =    1.100    outmost cutoff radius                                   
   RWIGS  =    0.700; RWIGS  =    0.370    wigner-seitz radius (au A)           
   ENMAX  =  250.000; ENMIN  =  200.000 eV                                      
   RCLOC  =    0.701    cutoff for local pot                                    
   LCOR   =        T    correct aug charges                                     
   LPAW   =        T    paw PP                                                  
   EAUG   =  400.000                                                            
   RMAX   =    1.123    core radius for proj-oper                               
   RAUG   =    1.200    factor for augmentation sphere                          
   RDEP   =    1.112    radius for radial grids                                 
   RDEPT  =    0.926    core radius for aug-charge                              
                                                                                
   Atomic configuration                                                         
    2 entries                                                                   
     n  l   j            E        occ.                                          
     1  0  0.50        -6.4927   1.0000                                         
     2  1  0.50        -3.4015   0.0000                                         
   Description                                                                  
     l       E           TYP  RCUT    TYP  RCUT                                 
     0     -6.4927494     23  1.100                                             
     0      6.8029130     23  1.100                                             
     1     -4.0817478     23  1.100                                             
  local pseudopotential read in
  atomic valenz-charges read in
  non local Contribution for L=           0  read in
    real space projection operators read in
  non local Contribution for L=           0  read in
    real space projection operators read in
  non local Contribution for L=           1  read in
    real space projection operators read in
    PAW grid and wavefunctions read in
 
   number of l-projection  operators is LMAX  =           3
   number of lm-projection operators is LMMAX =           5
 
  PAW_PBE O 08Apr2002                   :
 energy of atom  1       EATOM= -432.3788
 kinetic energy error for atom=    0.1156 (will be added to EATOM!!)
  PAW_PBE H 15Jun2001                   :
 energy of atom  2       EATOM=  -12.4884
 kinetic energy error for atom=    0.0098 (will be added to EATOM!!)
 
 
 POSCAR: O  H                                    
  positions in cartesian coordinates
  No initial velocities read in
 exchange correlation table for  LEXCH =        8
   RHO(1)=    0.500       N(1)  =     2000
   RHO(2)=  100.500       N(2)  =     4000

 VTST: version 3.2, (02/03/18)

 CHAIN: initializing optimizer
 
 OPT: Using VASP Conjugate-Gradient optimizer
 CHAIN: Read ICHAIN            0
 
 POSCAR: O  H                                    
  positions in cartesian coordinates
  No initial velocities read in
 


--------------------------------------------------------------------------------------------------------


 ion  position               nearest neighbor table
   1  0.000  0.000  0.012-   2 0.97   3 0.97
   2  0.000  0.077  0.952-   1 0.97
   3  0.000  0.923  0.952-   1 0.97
 
  LATTYP: Found a simple orthorhombic cell.
 ALAT       =    10.0000000000
 B/A-ratio  =     1.0000842425
 C/A-ratio  =     1.0006045824
  
  Lattice vectors:
  
 A1 = ( -10.0000000000,   0.0000000000,   0.0000000000)
 A2 = (   0.0000000000,   0.0000000000, -10.0008424246)
 A3 = (   0.0000000000, -10.0060458243,   0.0000000000)


Analysis of symmetry for initial positions (statically):
=====================================================================
 Subroutine PRICEL returns:
 Original cell was already a primitive cell.
 

 Routine SETGRP: Setting up the symmetry group for a 
 simple orthorhombic supercell.


 Subroutine GETGRP returns: Found  4 space group operations
 (whereof  4 operations were pure point group operations)
 out of a pool of  8 trial point group operations.


The static configuration has the point symmetry C_2v.


Analysis of symmetry for dynamics (positions and initial velocities):
=====================================================================
 Subroutine PRICEL returns:
 Original cell was already a primitive cell.
 

 Routine SETGRP: Setting up the symmetry group for a 
 simple orthorhombic supercell.


 Subroutine GETGRP returns: Found  4 space group operations
 (whereof  4 operations were pure point group operations)
 out of a pool of  8 trial point group operations.


The dynamic configuration has the point symmetry C_2v.


 Subroutine INISYM returns: Found  4 space group operations
 (whereof  4 operations are pure point group operations),
 and found     1 'primitive' translations

 
 
 KPOINTS: KPOINTS created by Atomic Simulation Env

Automatic generation of k-mesh.
Space group operators:
 irot       det(A)        alpha          n_x          n_y          n_z        tau_x        tau_y        tau_z
    1     1.000000     0.000000     1.000000     0.000000     0.000000     0.000000     0.000000     0.000000
    2    -1.000000   180.000000     0.000000     1.000000     0.000000     0.000000     0.000000     0.000000
    3     1.000000   180.000000     0.000000     0.000000     1.000000     0.000000     0.000000     0.000000
    4    -1.000000   180.000000     1.000000     0.000000     0.000000     0.000000     0.000000     0.000000
 
 Subroutine IBZKPT returns following result:
 ===========================================
 
 Found      1 irreducible k-points:
 
 Following reciprocal coordinates:
            Coordinates               Weight
  0.000000  0.000000  0.000000      1.000000
 
 Following cartesian coordinates:
            Coordinates               Weight
  0.000000  0.000000  0.000000      1.000000
 


--------------------------------------------------------------------------------------------------------




 Dimension of arrays:
   k-points           NKPTS =      1   k-points in BZ     NKDIM =      1   number of bands    NBANDS=      8
   number of dos      NEDOS =    301   number of ions     NIONS =      3
   non local maximal  LDIM  =      4   non local SUM 2l+1 LMDIM =      8
   total plane-waves  NPLWV = 125000
   max r-space proj   IRMAX =      1   max aug-charges    IRDMAX=   1820
   dimension x,y,z NGX =    50 NGY =   50 NGZ =   50
   dimension x,y,z NGXF=   100 NGYF=  100 NGZF=  100
   support grid    NGXF=   100 NGYF=  100 NGZF=  100
   ions per type =               1   2
   NGX,Y,Z   is equivalent  to a cutoff of   8.31,  8.31,  8.31 a.u.
   NGXF,Y,Z  is equivalent  to a cutoff of  16.62, 16.61, 16.62 a.u.

 SYSTEM =  unknown system                          
 POSCAR =  O  H                                    

 Startparameter for this run:
   NWRITE =      2    write-flag & timer
   PREC   = normal    normal or accurate (medium, high low for compatibility)
   ISTART =      0    job   : 0-new  1-cont  2-samecut
   ICHARG =      2    charge: 1-file 2-atom 10-const
   ISPIN  =      1    spin polarized calculation?
   LNONCOLLINEAR =      F non collinear calculations
   LSORBIT =      F    spin-orbit coupling
   INIWAV =      1    electr: 0-lowe 1-rand  2-diag
   LASPH  =      F    aspherical Exc in radial PAW
   METAGGA=      F    non-selfconsistent MetaGGA calc.

 Electronic Relaxation 1
   ENCUT  =  400.0 eV  29.40 Ry    5.42 a.u.  16.31 16.32 16.31*2*pi/ulx,y,z
   ENINI  =  400.0     initial cutoff
   ENAUG  =  605.4 eV  augmentation charge cutoff
   NELM   =     60;   NELMIN=  4; NELMDL= -5     # of ELM steps 
   EDIFF  = 0.1E-05   stopping-criterion for ELM
   LREAL  =      F    real-space projection
   NLSPLINE    = F    spline interpolate recip. space projectors
   LCOMPAT=      F    compatible to vasp.4.4
   GGA_COMPAT  = T    GGA compatible to vasp.4.4-vasp.4.6
   LMAXPAW     = -100 max onsite density
   LMAXMIX     =    2 max onsite mixed and CHGCAR
   VOSKOWN=      0    Vosko Wilk Nusair interpolation
   ROPT   =    0.00000   0.00000
 Ionic relaxation
   EDIFFG = 0.1E-01   stopping-criterion for IOM
   NSW    =     20    number of steps for IOM
   NBLOCK =      1;   KBLOCK =     20    inner block; outer block 
   IBRION =      2    ionic relax: 0-MD 1-quasi-New 2-CG
   NFREE  =      1    steps in history (QN), initial steepest desc. (CG)
   ISIF   =      2    stress and relaxation
   IWAVPR =     11    prediction:  0-non 1-charg 2-wave 3-comb
   ISYM   =      2    0-nonsym 1-usesym 2-fastsym
   LCORR  =      T    Harris-Foulkes like correction to forces

   POTIM  = 0.5000    time-step for ionic-motion
   TEIN   =    0.0    initial temperature
   TEBEG  =    0.0;   TEEND  =   0.0 temperature during run
   SMASS  =  -3.00    Nose mass-parameter (am)
   estimated Nose-frequenzy (Omega)   =  0.10E-29 period in steps =****** mass=  -0.229E-26a.u.
   SCALEE = 1.0000    scale energy and forces
   NPACO  =    256;   APACO  = 16.0  distance and # of slots for P.C.
   PSTRESS=    0.0 pullay stress

  Mass of Ions in am
   POMASS =  16.00  1.00
  Ionic Valenz
   ZVAL   =   6.00  1.00
  Atomic Wigner-Seitz radii
   RWIGS  =  -1.00 -1.00
  virtual crystal weights 
   VCA    =   1.00  1.00
   NELECT =       8.0000    total number of electrons
   NUPDOWN=      -1.0000    fix difference up-down

 DOS related values:
   EMIN   =  10.00;   EMAX   =-10.00  energy-range for DOS
   EFERMI =   0.00
   ISMEAR =     0;   SIGMA  =   0.10  broadening in eV -4-tet -1-fermi 0-gaus

 Electronic relaxation 2 (details)
   IALGO  =     38    algorithm
   LDIAG  =      T    sub-space diagonalisation (order eigenvalues)
   LSUBROT=      F    optimize rotation matrix (better conditioning)
   TURBO    =      0    0=normal 1=particle mesh
   IRESTART =      0    0=no restart 2=restart with 2 vectors
   NREBOOT  =      0    no. of reboots
   NMIN     =      0    reboot dimension
   EREF     =   0.00    reference energy to select bands
   IMIX   =      4    mixing-type and parameters
     AMIX     =   0.40;   BMIX     =  1.00
     AMIX_MAG =   1.60;   BMIX_MAG =  1.00
     AMIN     =   0.10
     WC   =   100.;   INIMIX=   1;  MIXPRE=   1;  MAXMIX= -45

 Intra band minimization:
   WEIMIN = 0.0010     energy-eigenvalue tresh-hold
   EBREAK =  0.31E-07  absolut break condition
   DEPER  =   0.30     relativ break condition  

   TIME   =   0.40     timestep for ELM

  volume/ion in A,a.u.               =     333.56      2250.99
  Fermi-wavevector in a.u.,A,eV,Ry     =   0.327345  0.618592  1.457925  0.107154
  Thomas-Fermi vector in A             =   1.219991
 
 Write flags
   LWAVE        =      F    write WAVECAR
   LDOWNSAMPLE  =      F    k-point downsampling of WAVECAR
   LCHARG       =      F    write CHGCAR
   LVTOT        =      F    write LOCPOT, total local potential
   LVHAR        =      F    write LOCPOT, Hartree potential only
   LELF         =      F    write electronic localiz. function (ELF)
   LORBIT       =      0    0 simple, 1 ext, 2 COOP (PROOUT), +10 PAW based schemes


 Dipole corrections
   LMONO  =      F    monopole corrections only (constant potential shift)
   LDIPOL =      F    correct potential (dipole corrections)
   IDIPOL =      0    1-x, 2-y, 3-z, 4-all directions 
   EPSILON=  1.0000000 bulk dielectric constant

 Exchange correlation treatment:
   GGA     =    PE    GGA type
   LEXCH   =     8    internal setting for exchange type
   VOSKOWN=      0    Vosko Wilk Nusair interpolation
   LHFCALC =     F    Hartree Fock is set to
   LHFONE  =     F    Hartree Fock one center treatment
   AEXX    =    0.0000 exact exchange contribution

 Linear response parameters
   LEPSILON=     F    determine dielectric tensor
   LRPA    =     F    only Hartree local field effects (RPA)
   LNABLA  =     F    use nabla operator in PAW spheres
   LVEL    =     F    velocity operator in full k-point grid
   LINTERFAST=   F  fast interpolation
   KINTER  =     0    interpolate to denser k-point grid
   CSHIFT  =0.1000    complex shift for real part using Kramers Kronig
   OMEGAMAX=  -1.0    maximum frequency
   DEG_THRESHOLD= 0.2000000E-02 threshold for treating states as degnerate
   RTIME   =   -0.100 relaxation time in fs
  (WPLASMAI=    0.000 imaginary part of plasma frequency in eV, 0.658/RTIME)
   DFIELD  = 0.0000000 0.0000000 0.0000000 field for delta impulse in time
 
 Orbital magnetization related:
   ORBITALMAG=     F  switch on orbital magnetization
   LCHIMAG   =     F  perturbation theory with respect to B field
   DQ        =  0.001000  dq finite difference perturbation B field
   LLRAUG    =     F  two centre corrections for induced B field



--------------------------------------------------------------------------------------------------------


 conjugate gradient relaxation of ions
 charge density and potential will be updated during run
 non-spin polarized calculation
 Variant of blocked Davidson
 Davidson routine will perform the subspace rotation
 perform sub-space diagonalisation
    after iterative eigenvector-optimisation
 modified Broyden-mixing scheme, WC =      100.0
 initial mixing is a Kerker type mixing with AMIX =  0.4000 and BMIX =      1.0000
 Hartree-type preconditioning will be used
 using additional bands            4
 reciprocal scheme for non local part
 use partial core corrections
 calculate Harris-corrections to forces 
   (improved forces if not selfconsistent)
 use gradient corrections 
 use of overlap-Matrix (Vanderbilt PP)
 Gauss-broadening in eV      SIGMA  =   0.10


--------------------------------------------------------------------------------------------------------


  energy-cutoff  :      400.00
  volume of cell :     1000.69
      direct lattice vectors                 reciprocal lattice vectors
    10.000000000  0.000000000  0.000000000     0.100000000  0.000000000  0.000000000
     0.000000000 10.006045824  0.000000000     0.000000000  0.099939578  0.000000000
     0.000000000  0.000000000 10.000842425     0.000000000  0.000000000  0.099991576

  length of vectors
    10.000000000 10.006045824 10.000842425     0.100000000  0.099939578  0.099991576


 
 k-points in units of 2pi/SCALE and weight: KPOINTS created by Atomic Simulation Env
   0.00000000  0.00000000  0.00000000       1.000
 
 k-points in reciprocal lattice and weights: KPOINTS created by Atomic Simulation Env
   0.00000000  0.00000000  0.00000000       1.000
 
 position of ions in fractional coordinates (direct lattice) 
   0.00000000  0.00000000  0.01205496
   0.00000000  0.07668008  0.95223092
   0.00000000  0.92331992  0.95223092
 
 position of ions in cartesian coordinates  (Angst):
   0.00000000  0.00000000  0.12055974
   0.00000000  0.76726437  9.52311138
   0.00000000  9.23878145  9.52311138
 


--------------------------------------------------------------------------------------------------------


 k-point  1 :   0.0000 0.0000 0.0000  plane waves:   18189

 maximum and minimum number of plane-waves per node :      4556     4539

 maximum number of plane-waves:     18189
 maximum index in each direction: 
   IXMAX=   16   IYMAX=   16   IZMAX=   16
   IXMIN=  -16   IYMIN=  -16   IZMIN=  -16


 parallel 3D FFT for wavefunctions:
    minimum data exchange during FFTs selected (reduces bandwidth)
 parallel 3D FFT for charge:
    minimum data exchange during FFTs selected (reduces bandwidth)


 total amount of memory used by VASP MPI-rank0    39579. kBytes
=======================================================================

   base      :      30000. kBytes
   nonl-proj :        801. kBytes
   fftplans  :       3343. kBytes
   grid      :       5286. kBytes
   one-center:          3. kBytes
   wavefun   :        146. kBytes
 
     INWAV:  cpu time    0.0000: real time    0.0000
 Broyden mixing: mesh for mixing (old mesh)
   NGX = 33   NGY = 33   NGZ = 33
  (NGX  =100   NGY  =100   NGZ  =100)
  gives a total of  35937 points

 initial charge density was supplied:
 charge density of overlapping atoms calculated
 number of electron       8.0000000 magnetization 
 keeping initial charge density in first step


--------------------------------------------------------------------------------------------------------


 Maximum index for augmentation-charges          273 (set IRDMAX)


--------------------------------------------------------------------------------------------------------


 First call to EWALD:  gamma=   0.177
 Maximum number of real-space cells 3x 3x 3
 Maximum number of reciprocal cells 3x 3x 3

    FEWALD:  cpu time    0.0018: real time    0.0018


--------------------------------------- Iteration      1(   1)  ---------------------------------------


    POTLOK:  cpu time    0.1435: real time    0.1451
    SETDIJ:  cpu time    0.0037: real time    0.0037
     EDDAV:  cpu time    0.0681: real time    0.0687
       DOS:  cpu time    0.0002: real time    0.0002
    --------------------------------------------
      LOOP:  cpu time    0.2155: real time    0.2178

 eigenvalue-minimisations  :    16
 total energy-change (2. order) : 0.7026115E+02  (-0.1369578E+03)
 number of electron       8.0000000 magnetization 
 augmentation part        8.0000000 magnetization 

 Free energy of the ion-electron system (eV)
  ---------------------------------------------------
  alpha Z        PSCENC =         0.22409691
  Ewald energy   TEWEN  =        56.68788323
  -Hartree energ DENC   =      -416.77756511
  -exchange      EXHF   =         0.00000000
  -V(xc)+E(xc)   XCENC  =        32.17778827
  PAW double counting   =       350.81753176     -352.63395800
  entropy T*S    EENTRO =        -0.00000000
  eigenvalues    EBANDS =       -57.45508619
  atomic energy  EATOM  =       457.22046137
  Solvation  Ediel_sol  =         0.00000000
  ---------------------------------------------------
  free energy    TOTEN  =        70.26115225 eV

  energy without entropy =       70.26115225  energy(sigma->0) =       70.26115225


--------------------------------------------------------------------------------------------------------




--------------------------------------- Iteration      1(   2)  ---------------------------------------


     EDDAV:  cpu time    0.1178: real time    0.1192
       DOS:  cpu time    0.0002: real time    0.0002
    --------------------------------------------
      LOOP:  cpu time    0.1180: real time    0.1194

 eigenvalue-minimisations  :    32
 total energy-change (2. order) :-0.7233501E+02  (-0.7233501E+02)
 number of electron       8.0000000 magnetization 
 augmentation part        8.0000000 magnetization 

 Free energy of the ion-electron system (eV)
  ---------------------------------------------------
  alpha Z        PSCENC =         0.22409691
  Ewald energy   TEWEN  =        56.68788323
  -Hartree energ DENC   =      -416.77756511
  -exchange      EXHF   =         0.00000000
  -V(xc)+E(xc)   XCENC  =        32.17778827
  PAW double counting   =       350.81753176     -352.63395800
  entropy T*S    EENTRO =        -0.00000000
  eigenvalues    EBANDS =      -129.79009867
  atomic energy  EATOM  =       457.22046137
  Solvation  Ediel_sol  =         0.00000000
  ---------------------------------------------------
  free energy    TOTEN  =        -2.07386023 eV

  energy without entropy =       -2.07386023  energy(sigma->0) =       -2.07386023


--------------------------------------------------------------------------------------------------------




--------------------------------------- Iteration      1(   3)  ---------------------------------------


     EDDAV:  cpu time    0.0670: real time    0.0677
       DOS:  cpu time    0.0004: real time    0.0004
    --------------------------------------------
      LOOP:  cpu time    0.0674: real time    0.0681

 eigenvalue-minimisations  :    16
 total energy-change (2. order) :-0.1386687E+02  (-0.1386687E+02)
 number of electron       8.0000000 magnetization 
 augmentation part        8.0000000 magnetization 

 Free energy of the ion-electron system (eV)
  ---------------------------------------------------
  alpha Z        PSCENC =         0.22409691
  Ewald energy   TEWEN  =        56.68788323
  -Hartree energ DENC   =      -416.77756511
  -exchange      EXHF   =         0.00000000
  -V(xc)+E(xc)   XCENC  =        32.17778827
  PAW double counting   =       350.81753176     -352.63395800
  entropy T*S    EENTRO =        -0.00000000
  eigenvalues    EBANDS =      -143.65697321
  atomic energy  EATOM  =       457.22046137
  Solvation  Ediel_sol  =         0.00000000
  ---------------------------------------------------
  free energy    TOTEN  =       -15.94073477 eV

  energy without entropy =      -15.94073477  energy(sigma->0) =      -15.94073477


--------------------------------------------------------------------------------------------------------




--------------------------------------- Iteration      1(   4)  ---------------------------------------


     EDDAV:  cpu time    0.1181: real time    0.1194
       DOS:  cpu time    0.0002: real time    0.0002
    --------------------------------------------
      LOOP:  cpu time    0.1183: real time    0.1195

 eigenvalue-minimisations  :    32
 total energy-change (2. order) :-0.3048410E+00  (-0.3048410E+00)
 number of electron       8.0000000 magnetization 
 augmentation part        8.0000000 magnetization 

 Free energy of the ion-electron system (eV)
  ---------------------------------------------------
  alpha Z        PSCENC =         0.22409691
  Ewald energy   TEWEN  =        56.68788323
  -Hartree energ DENC   =      -416.77756511
  -exchange      EXHF   =         0.00000000
  -V(xc)+E(xc)   XCENC  =        32.17778827
  PAW double counting   =       350.81753176     -352.63395800
  entropy T*S    EENTRO =        -0.00000000
  eigenvalues    EBANDS =      -143.96181418
  atomic energy  EATOM  =       457.22046137
  Solvation  Ediel_sol  =         0.00000000
  ---------------------------------------------------
  free energy    TOTEN  =       -16.24557573 eV

  energy without entropy =      -16.24557573  energy(sigma->0) =      -16.24557573


--------------------------------------------------------------------------------------------------------




--------------------------------------- Iteration      1(   5)  ---------------------------------------


     EDDAV:  cpu time    0.1182: real time    0.1195
       DOS:  cpu time    0.0004: real time    0.0004
    CHARGE:  cpu time    0.0387: real time    0.0389
    MIXING:  cpu time    0.0048: real time    0.0048
    --------------------------------------------
      LOOP:  cpu time    0.1621: real time    0.1636

 eigenvalue-minimisations  :    32
 total energy-change (2. order) :-0.4145703E-04  (-0.4145703E-04)
 number of electron       8.0000099 magnetization 
 augmentation part        0.8290884 magnetization 

 Broyden mixing:
  rms(total) = 0.78680E+00    rms(broyden)= 0.78492E+00
  rms(prec ) = 0.10590E+01
  weight for this iteration     100.00

 Free energy of the ion-electron system (eV)
  ---------------------------------------------------
  alpha Z        PSCENC =         0.22409691
  Ewald energy   TEWEN  =        56.68788323
  -Hartree energ DENC   =      -416.77756511
  -exchange      EXHF   =         0.00000000
  -V(xc)+E(xc)   XCENC  =        32.17778827
  PAW double counting   =       350.81753176     -352.63395800
  entropy T*S    EENTRO =        -0.00000000
  eigenvalues    EBANDS =      -143.96185563
  atomic energy  EATOM  =       457.22046137
  Solvation  Ediel_sol  =         0.00000000
  ---------------------------------------------------
  free energy    TOTEN  =       -16.24561719 eV

  energy without entropy =      -16.24561719  energy(sigma->0) =      -16.24561719


--------------------------------------------------------------------------------------------------------




--------------------------------------- Iteration      1(   6)  ---------------------------------------


    POTLOK:  cpu time    0.1251: real time    0.1262
    SETDIJ:  cpu time    0.0018: real time    0.0018
     EDDAV:  cpu time    0.0664: real time    0.0668
       DOS:  cpu time    0.0006: real time    0.0006
    CHARGE:  cpu time    0.0365: real time    0.0368
    MIXING:  cpu time    0.0050: real time    0.0050
    --------------------------------------------
      LOOP:  cpu time    0.2355: real time    0.2373

 eigenvalue-minimisations  :    16
 total energy-change (2. order) : 0.1857840E+01  (-0.9268686E+00)
 number of electron       8.0000083 magnetization 
 augmentation part        0.6947969 magnetization 

 Broyden mixing:
  rms(total) = 0.32535E+00    rms(broyden)= 0.32486E+00
  rms(prec ) = 0.38559E+00
  weight for this iteration     100.00

 eigenvalues of (default mixing * dielectric matrix)
  average eigenvalue GAMMA=   0.9234
  0.9234

 Free energy of the ion-electron system (eV)
  ---------------------------------------------------
  alpha Z        PSCENC =         0.22409691
  Ewald energy   TEWEN  =        56.68788323
  -Hartree energ DENC   =      -440.62446794
  -exchange      EXHF   =         0.00000000
  -V(xc)+E(xc)   XCENC  =        33.51090557
  PAW double counting   =       450.20661935     -452.35755910
  entropy T*S    EENTRO =        -0.00000000
  eigenvalues    EBANDS =      -119.25571630
  atomic energy  EATOM  =       457.22046137
  Solvation  Ediel_sol  =         0.00000000
  ---------------------------------------------------
  free energy    TOTEN  =       -14.38777690 eV

  energy without entropy =      -14.38777690  energy(sigma->0) =      -14.38777690


--------------------------------------------------------------------------------------------------------




--------------------------------------- Iteration      1(   7)  ---------------------------------------


    POTLOK:  cpu time    0.1244: real time    0.1256
    SETDIJ:  cpu time    0.0018: real time    0.0019
     EDDAV:  cpu time    0.0910: real time    0.0917
       DOS:  cpu time    0.0007: real time    0.0007
    CHARGE:  cpu time    0.0361: real time    0.0363
    MIXING:  cpu time    0.0052: real time    0.0053
    --------------------------------------------
      LOOP:  cpu time    0.2592: real time    0.2615

 eigenvalue-minimisations  :    24
 total energy-change (2. order) : 0.1042841E+00  (-0.1084008E-01)
 number of electron       8.0000083 magnetization 
 augmentation part        0.6916432 magnetization 

 Broyden mixing:
  rms(total) = 0.20043E+00    rms(broyden)= 0.20041E+00
  rms(prec ) = 0.24252E+00
  weight for this iteration     100.00

 eigenvalues of (default mixing * dielectric matrix)
  average eigenvalue GAMMA=   1.7238
  1.0334  2.4142

 Free energy of the ion-electron system (eV)
  ---------------------------------------------------
  alpha Z        PSCENC =         0.22409691
  Ewald energy   TEWEN  =        56.68788323
  -Hartree energ DENC   =      -444.16849738
  -exchange      EXHF   =         0.00000000
  -V(xc)+E(xc)   XCENC  =        33.69372692
  PAW double counting   =       496.43202894     -498.54412025
  entropy T*S    EENTRO =        -0.00000000
  eigenvalues    EBANDS =      -115.82907250
  atomic energy  EATOM  =       457.22046137
  Solvation  Ediel_sol  =         0.00000000
  ---------------------------------------------------
  free energy    TOTEN  =       -14.28349277 eV

  energy without entropy =      -14.28349277  energy(sigma->0) =      -14.28349277


--------------------------------------------------------------------------------------------------------




--------------------------------------- Iteration      1(   8)  ---------------------------------------


    POTLOK:  cpu time    0.1241: real time    0.1251
    SETDIJ:  cpu time    0.0018: real time    0.0018
     EDDAV:  cpu time    0.0665: real time    0.0669
       DOS:  cpu time    0.0006: real time    0.0006
    CHARGE:  cpu time    0.0365: real time    0.0368
    MIXING:  cpu time    0.0056: real time    0.0056
    --------------------------------------------
      LOOP:  cpu time    0.2351: real time    0.2369

 eigenvalue-minimisations  :    16
 total energy-change (2. order) : 0.7924423E-01  (-0.6751075E-02)
 number of electron       8.0000083 magnetization 
 augmentation part        0.6900162 magnetization 

 Broyden mixing:
  rms(total) = 0.19901E-01    rms(broyden)= 0.19895E-01
  rms(prec ) = 0.45747E-01
  weight for this iteration     100.00

 eigenvalues of (default mixing * dielectric matrix)
  average eigenvalue GAMMA=   1.4804
  2.3959  0.9897  1.0557

 Free energy of the ion-electron system (eV)
  ---------------------------------------------------
  alpha Z        PSCENC =         0.22409691
  Ewald energy   TEWEN  =        56.68788323
  -Hartree energ DENC   =      -449.56602844
  -exchange      EXHF   =         0.00000000
  -V(xc)+E(xc)   XCENC  =        33.99190864
  PAW double counting   =       569.64117929     -571.70363374
  entropy T*S    EENTRO =        -0.00000000
  eigenvalues    EBANDS =      -110.70011582
  atomic energy  EATOM  =       457.22046137
  Solvation  Ediel_sol  =         0.00000000
  ---------------------------------------------------
  free energy    TOTEN  =       -14.20424854 eV

  energy without entropy =      -14.20424854  energy(sigma->0) =      -14.20424854


--------------------------------------------------------------------------------------------------------




--------------------------------------- Iteration      1(   9)  ---------------------------------------


    POTLOK:  cpu time    0.1234: real time    0.1252
    SETDIJ:  cpu time    0.0018: real time    0.0018
     EDDAV:  cpu time    0.1170: real time    0.1178
       DOS:  cpu time    0.0005: real time    0.0005
    CHARGE:  cpu time    0.0363: real time    0.0366
    MIXING:  cpu time    0.0057: real time    0.0057
    --------------------------------------------
      LOOP:  cpu time    0.2847: real time    0.2876

 eigenvalue-minimisations  :    32
 total energy-change (2. order) :-0.2362310E-02  (-0.4655718E-03)
 number of electron       8.0000083 magnetization 
 augmentation part        0.6872671 magnetization 

 Broyden mixing:
  rms(total) = 0.14961E-01    rms(broyden)= 0.14953E-01
  rms(prec ) = 0.34789E-01
  weight for this iteration     100.00

 eigenvalues of (default mixing * dielectric matrix)
  average eigenvalue GAMMA=   1.9068
  3.0416  2.5956  0.9949  0.9949

 Free energy of the ion-electron system (eV)
  ---------------------------------------------------
  alpha Z        PSCENC =         0.22409691
  Ewald energy   TEWEN  =        56.68788323
  -Hartree energ DENC   =      -450.22220713
  -exchange      EXHF   =         0.00000000
  -V(xc)+E(xc)   XCENC  =        34.01251638
  PAW double counting   =       565.78201977     -567.84674996
  entropy T*S    EENTRO =        -0.00000000
  eigenvalues    EBANDS =      -110.06463142
  atomic energy  EATOM  =       457.22046137
  Solvation  Ediel_sol  =         0.00000000
  ---------------------------------------------------
  free energy    TOTEN  =       -14.20661085 eV

  energy without entropy =      -14.20661085  energy(sigma->0) =      -14.20661085


--------------------------------------------------------------------------------------------------------




--------------------------------------- Iteration      1(  10)  ---------------------------------------


    POTLOK:  cpu time    0.1226: real time    0.1237
    SETDIJ:  cpu time    0.0018: real time    0.0019
     EDDAV:  cpu time    0.0664: real time    0.0669
       DOS:  cpu time    0.0007: real time    0.0007
    CHARGE:  cpu time    0.0379: real time    0.0381
    MIXING:  cpu time    0.0065: real time    0.0065
    --------------------------------------------
      LOOP:  cpu time    0.2359: real time    0.2378

 eigenvalue-minimisations  :    16
 total energy-change (2. order) :-0.6176165E-02  (-0.5422417E-03)
 number of electron       8.0000083 magnetization 
 augmentation part        0.6885077 magnetization 

 Broyden mixing:
  rms(total) = 0.97396E-02    rms(broyden)= 0.97344E-02
  rms(prec ) = 0.17438E-01
  weight for this iteration     100.00

 eigenvalues of (default mixing * dielectric matrix)
  average eigenvalue GAMMA=   1.7487
  3.3208  2.4333  0.9480  0.9480  1.0934

 Free energy of the ion-electron system (eV)
  ---------------------------------------------------
  alpha Z        PSCENC =         0.22409691
  Ewald energy   TEWEN  =        56.68788323
  -Hartree energ DENC   =      -450.89141435
  -exchange      EXHF   =         0.00000000
  -V(xc)+E(xc)   XCENC  =        34.01179384
  PAW double counting   =       556.34641461     -558.40025672
  entropy T*S    EENTRO =        -0.00000000
  eigenvalues    EBANDS =      -109.41176590
  atomic energy  EATOM  =       457.22046137
  Solvation  Ediel_sol  =         0.00000000
  ---------------------------------------------------
  free energy    TOTEN  =       -14.21278701 eV

  energy without entropy =      -14.21278701  energy(sigma->0) =      -14.21278701


--------------------------------------------------------------------------------------------------------




--------------------------------------- Iteration      1(  11)  ---------------------------------------


    POTLOK:  cpu time    0.1247: real time    0.1257
    SETDIJ:  cpu time    0.0019: real time    0.0019
     EDDAV:  cpu time    0.0664: real time    0.0669
       DOS:  cpu time    0.0008: real time    0.0008
    CHARGE:  cpu time    0.0360: real time    0.0363
    MIXING:  cpu time    0.0064: real time    0.0064
    --------------------------------------------
      LOOP:  cpu time    0.2363: real time    0.2381

 eigenvalue-minimisations  :    16
 total energy-change (2. order) :-0.4822219E-02  (-0.5388418E-03)
 number of electron       8.0000082 magnetization 
 augmentation part        0.6853173 magnetization 

 Broyden mixing:
  rms(total) = 0.93045E-02    rms(broyden)= 0.92952E-02
  rms(prec ) = 0.15153E-01
  weight for this iteration     100.00

 eigenvalues of (default mixing * dielectric matrix)
  average eigenvalue GAMMA=   2.1977
  4.9496  2.9353  2.4097  1.0578  0.9168  0.9168

 Free energy of the ion-electron system (eV)
  ---------------------------------------------------
  alpha Z        PSCENC =         0.22409691
  Ewald energy   TEWEN  =        56.68788323
  -Hartree energ DENC   =      -451.57211947
  -exchange      EXHF   =         0.00000000
  -V(xc)+E(xc)   XCENC  =        34.04119119
  PAW double counting   =       560.27731195     -562.33735122
  entropy T*S    EENTRO =        -0.00000000
  eigenvalues    EBANDS =      -108.75908319
  atomic energy  EATOM  =       457.22046137
  Solvation  Ediel_sol  =         0.00000000
  ---------------------------------------------------
  free energy    TOTEN  =       -14.21760923 eV

  energy without entropy =      -14.21760923  energy(sigma->0) =      -14.21760923


--------------------------------------------------------------------------------------------------------




--------------------------------------- Iteration      1(  12)  ---------------------------------------


    POTLOK:  cpu time    0.1207: real time    0.1218
    SETDIJ:  cpu time    0.0018: real time    0.0018
     EDDAV:  cpu time    0.0664: real time    0.0668
       DOS:  cpu time    0.0007: real time    0.0007
    CHARGE:  cpu time    0.0354: real time    0.0356
    MIXING:  cpu time    0.0073: real time    0.0073
    --------------------------------------------
      LOOP:  cpu time    0.2323: real time    0.2341

 eigenvalue-minimisations  :    16
 total energy-change (2. order) :-0.4866976E-02  (-0.2464009E-03)
 number of electron       8.0000083 magnetization 
 augmentation part        0.6866957 magnetization 

 Broyden mixing:
  rms(total) = 0.33713E-02    rms(broyden)= 0.33691E-02
  rms(prec ) = 0.53816E-02
  weight for this iteration     100.00

 eigenvalues of (default mixing * dielectric matrix)
  average eigenvalue GAMMA=   2.0370
  4.8145  2.9858  2.4879  1.0332  1.0332  0.9520  0.9520

 Free energy of the ion-electron system (eV)
  ---------------------------------------------------
  alpha Z        PSCENC =         0.22409691
  Ewald energy   TEWEN  =        56.68788323
  -Hartree energ DENC   =      -451.39452349
  -exchange      EXHF   =         0.00000000
  -V(xc)+E(xc)   XCENC  =        34.01994857
  PAW double counting   =       559.76618236     -561.82300196
  entropy T*S    EENTRO =        -0.00000000
  eigenvalues    EBANDS =      -108.92352320
  atomic energy  EATOM  =       457.22046137
  Solvation  Ediel_sol  =         0.00000000
  ---------------------------------------------------
  free energy    TOTEN  =       -14.22247621 eV

  energy without entropy =      -14.22247621  energy(sigma->0) =      -14.22247621


--------------------------------------------------------------------------------------------------------




--------------------------------------- Iteration      1(  13)  ---------------------------------------


    POTLOK:  cpu time    0.1206: real time    0.1217
    SETDIJ:  cpu time    0.0018: real time    0.0018
     EDDAV:  cpu time    0.1175: real time    0.1183
       DOS:  cpu time    0.0006: real time    0.0006
    CHARGE:  cpu time    0.0362: real time    0.0364
    MIXING:  cpu time    0.0066: real time    0.0066
    --------------------------------------------
      LOOP:  cpu time    0.2833: real time    0.2855

 eigenvalue-minimisations  :    32
 total energy-change (2. order) :-0.1747144E-02  (-0.2643213E-04)
 number of electron       8.0000083 magnetization 
 augmentation part        0.6869075 magnetization 

 Broyden mixing:
  rms(total) = 0.18102E-02    rms(broyden)= 0.18091E-02
  rms(prec ) = 0.29360E-02
  weight for this iteration     100.00

 eigenvalues of (default mixing * dielectric matrix)
  average eigenvalue GAMMA=   2.3646
  6.4674  3.5821  2.6916  2.3808  1.0857  0.9158  0.9158  0.8771

 Free energy of the ion-electron system (eV)
  ---------------------------------------------------
  alpha Z        PSCENC =         0.22409691
  Ewald energy   TEWEN  =        56.68788323
  -Hartree energ DENC   =      -451.35619549
  -exchange      EXHF   =         0.00000000
  -V(xc)+E(xc)   XCENC  =        34.01649126
  PAW double counting   =       560.16238940     -562.21885600
  entropy T*S    EENTRO =        -0.00000000
  eigenvalues    EBANDS =      -108.96049404
  atomic energy  EATOM  =       457.22046137
  Solvation  Ediel_sol  =         0.00000000
  ---------------------------------------------------
  free energy    TOTEN  =       -14.22422335 eV

  energy without entropy =      -14.22422335  energy(sigma->0) =      -14.22422335


--------------------------------------------------------------------------------------------------------




--------------------------------------- Iteration      1(  14)  ---------------------------------------


    POTLOK:  cpu time    0.1200: real time    0.1213
    SETDIJ:  cpu time    0.0018: real time    0.0018
     EDDAV:  cpu time    0.0665: real time    0.0669
       DOS:  cpu time    0.0006: real time    0.0006
    CHARGE:  cpu time    0.0366: real time    0.0368
    MIXING:  cpu time    0.0069: real time    0.0069
    --------------------------------------------
      LOOP:  cpu time    0.2323: real time    0.2344

 eigenvalue-minimisations  :    16
 total energy-change (2. order) :-0.8996972E-03  (-0.1266471E-04)
 number of electron       8.0000083 magnetization 
 augmentation part        0.6871209 magnetization 

 Broyden mixing:
  rms(total) = 0.14128E-02    rms(broyden)= 0.14119E-02
  rms(prec ) = 0.18551E-02
  weight for this iteration     100.00

 eigenvalues of (default mixing * dielectric matrix)
  average eigenvalue GAMMA=   2.4382
  7.3273  3.9192  2.6930  2.4538  1.5284  1.1804  0.9344  0.9344  0.9727

 Free energy of the ion-electron system (eV)
  ---------------------------------------------------
  alpha Z        PSCENC =         0.22409691
  Ewald energy   TEWEN  =        56.68788323
  -Hartree energ DENC   =      -451.27131335
  -exchange      EXHF   =         0.00000000
  -V(xc)+E(xc)   XCENC  =        34.01044465
  PAW double counting   =       559.31633944     -561.37246310
  entropy T*S    EENTRO =        -0.00000000
  eigenvalues    EBANDS =      -109.04057220
  atomic energy  EATOM  =       457.22046137
  Solvation  Ediel_sol  =         0.00000000
  ---------------------------------------------------
  free energy    TOTEN  =       -14.22512305 eV

  energy without entropy =      -14.22512305  energy(sigma->0) =      -14.22512305


--------------------------------------------------------------------------------------------------------




--------------------------------------- Iteration      1(  15)  ---------------------------------------


    POTLOK:  cpu time    0.1202: real time    0.1213
    SETDIJ:  cpu time    0.0018: real time    0.0018
     EDDAV:  cpu time    0.0911: real time    0.0917
       DOS:  cpu time    0.0006: real time    0.0006
    CHARGE:  cpu time    0.0365: real time    0.0367
    MIXING:  cpu time    0.0071: real time    0.0072
    --------------------------------------------
      LOOP:  cpu time    0.2573: real time    0.2593

 eigenvalue-minimisations  :    24
 total energy-change (2. order) :-0.2368382E-03  (-0.1189395E-05)
 number of electron       8.0000083 magnetization 
 augmentation part        0.6870881 magnetization 

 Broyden mixing:
  rms(total) = 0.71567E-03    rms(broyden)= 0.71565E-03
  rms(prec ) = 0.10023E-02
  weight for this iteration     100.00

 eigenvalues of (default mixing * dielectric matrix)
  average eigenvalue GAMMA=   2.5591
  8.0619  4.5169  3.1980  2.4576  2.4151  1.0623  1.0623  0.9354  0.9354  0.9464

 Free energy of the ion-electron system (eV)
  ---------------------------------------------------
  alpha Z        PSCENC =         0.22409691
  Ewald energy   TEWEN  =        56.68788323
  -Hartree energ DENC   =      -451.26456892
  -exchange      EXHF   =         0.00000000
  -V(xc)+E(xc)   XCENC  =        34.01009284
  PAW double counting   =       559.16712359     -561.22285361
  entropy T*S    EENTRO =        -0.00000000
  eigenvalues    EBANDS =      -109.04759529
  atomic energy  EATOM  =       457.22046137
  Solvation  Ediel_sol  =         0.00000000
  ---------------------------------------------------
  free energy    TOTEN  =       -14.22535989 eV

  energy without entropy =      -14.22535989  energy(sigma->0) =      -14.22535989


--------------------------------------------------------------------------------------------------------




--------------------------------------- Iteration      1(  16)  ---------------------------------------


    POTLOK:  cpu time    0.1203: real time    0.1215
    SETDIJ:  cpu time    0.0018: real time    0.0018
     EDDAV:  cpu time    0.1175: real time    0.1182
       DOS:  cpu time    0.0007: real time    0.0007
    CHARGE:  cpu time    0.0357: real time    0.0359
    MIXING:  cpu time    0.0073: real time    0.0074
    --------------------------------------------
      LOOP:  cpu time    0.2833: real time    0.2855

 eigenvalue-minimisations  :    32
 total energy-change (2. order) :-0.1100882E-03  (-0.2073861E-05)
 number of electron       8.0000083 magnetization 
 augmentation part        0.6869084 magnetization 

 Broyden mixing:
  rms(total) = 0.46970E-03    rms(broyden)= 0.46915E-03
  rms(prec ) = 0.58766E-03
  weight for this iteration     100.00

 eigenvalues of (default mixing * dielectric matrix)
  average eigenvalue GAMMA=   2.6796
  8.4936  5.0200  3.1976  3.1976  2.3269  2.3269  1.0652  1.0652  0.9255  0.9255
  0.9314

 Free energy of the ion-electron system (eV)
  ---------------------------------------------------
  alpha Z        PSCENC =         0.22409691
  Ewald energy   TEWEN  =        56.68788323
  -Hartree energ DENC   =      -451.29486776
  -exchange      EXHF   =         0.00000000
  -V(xc)+E(xc)   XCENC  =        34.01163642
  PAW double counting   =       559.18167159     -561.23751146
  entropy T*S    EENTRO =        -0.00000000
  eigenvalues    EBANDS =      -109.01884027
  atomic energy  EATOM  =       457.22046137
  Solvation  Ediel_sol  =         0.00000000
  ---------------------------------------------------
  free energy    TOTEN  =       -14.22546998 eV

  energy without entropy =      -14.22546998  energy(sigma->0) =      -14.22546998


--------------------------------------------------------------------------------------------------------




--------------------------------------- Iteration      1(  17)  ---------------------------------------


    POTLOK:  cpu time    0.1224: real time    0.1235
    SETDIJ:  cpu time    0.0019: real time    0.0019
     EDDAV:  cpu time    0.1176: real time    0.1184
       DOS:  cpu time    0.0006: real time    0.0006
    CHARGE:  cpu time    0.0359: real time    0.0361
    MIXING:  cpu time    0.0076: real time    0.0076
    --------------------------------------------
      LOOP:  cpu time    0.2859: real time    0.2881

 eigenvalue-minimisations  :    32
 total energy-change (2. order) :-0.2648355E-04  (-0.5298717E-06)
 number of electron       8.0000083 magnetization 
 augmentation part        0.6870018 magnetization 

 Broyden mixing:
  rms(total) = 0.10063E-03    rms(broyden)= 0.10034E-03
  rms(prec ) = 0.14985E-03
  weight for this iteration     100.00

 eigenvalues of (default mixing * dielectric matrix)
  average eigenvalue GAMMA=   2.5733
  8.5865  5.2909  3.5899  2.8641  2.3486  2.3486  1.0951  1.0951  0.9296  0.9296
  0.9006  0.9006

 Free energy of the ion-electron system (eV)
  ---------------------------------------------------
  alpha Z        PSCENC =         0.22409691
  Ewald energy   TEWEN  =        56.68788323
  -Hartree energ DENC   =      -451.28034289
  -exchange      EXHF   =         0.00000000
  -V(xc)+E(xc)   XCENC  =        34.01080274
  PAW double counting   =       559.23531562     -561.29118961
  entropy T*S    EENTRO =        -0.00000000
  eigenvalues    EBANDS =      -109.03252382
  atomic energy  EATOM  =       457.22046137
  Solvation  Ediel_sol  =         0.00000000
  ---------------------------------------------------
  free energy    TOTEN  =       -14.22549646 eV

  energy without entropy =      -14.22549646  energy(sigma->0) =      -14.22549646


--------------------------------------------------------------------------------------------------------




--------------------------------------- Iteration      1(  18)  ---------------------------------------


    POTLOK:  cpu time    0.1236: real time    0.1246
    SETDIJ:  cpu time    0.0018: real time    0.0018
     EDDAV:  cpu time    0.1174: real time    0.1183
       DOS:  cpu time    0.0005: real time    0.0005
    CHARGE:  cpu time    0.0359: real time    0.0362
    MIXING:  cpu time    0.0079: real time    0.0079
    --------------------------------------------
      LOOP:  cpu time    0.2871: real time    0.2894

 eigenvalue-minimisations  :    32
 total energy-change (2. order) :-0.1830881E-05  (-0.1502222E-07)
 number of electron       8.0000083 magnetization 
 augmentation part        0.6869862 magnetization 

 Broyden mixing:
  rms(total) = 0.45290E-04    rms(broyden)= 0.45268E-04
  rms(prec ) = 0.65493E-04
  weight for this iteration     100.00

 eigenvalues of (default mixing * dielectric matrix)
  average eigenvalue GAMMA=   2.5768
  8.7075  5.3783  3.7908  2.8543  2.5010  2.1789  2.1789  1.1025  1.0548  0.9220
  0.9220  0.9537  0.9537

 Free energy of the ion-electron system (eV)
  ---------------------------------------------------
  alpha Z        PSCENC =         0.22409691
  Ewald energy   TEWEN  =        56.68788323
  -Hartree energ DENC   =      -451.28360281
  -exchange      EXHF   =         0.00000000
  -V(xc)+E(xc)   XCENC  =        34.01097341
  PAW double counting   =       559.24335267     -561.29926745
  entropy T*S    EENTRO =        -0.00000000
  eigenvalues    EBANDS =      -109.02939563
  atomic energy  EATOM  =       457.22046137
  Solvation  Ediel_sol  =         0.00000000
  ---------------------------------------------------
  free energy    TOTEN  =       -14.22549829 eV

  energy without entropy =      -14.22549829  energy(sigma->0) =      -14.22549829


--------------------------------------------------------------------------------------------------------




--------------------------------------- Iteration      1(  19)  ---------------------------------------


    POTLOK:  cpu time    0.1237: real time    0.1250
    SETDIJ:  cpu time    0.0018: real time    0.0019
     EDDAV:  cpu time    0.1178: real time    0.1187
       DOS:  cpu time    0.0006: real time    0.0006
    CHARGE:  cpu time    0.0358: real time    0.0360
    MIXING:  cpu time    0.0083: real time    0.0084
    --------------------------------------------
      LOOP:  cpu time    0.2881: real time    0.2905

 eigenvalue-minimisations  :    32
 total energy-change (2. order) :-0.1940127E-05  (-0.9976207E-08)
 number of electron       8.0000083 magnetization 
 augmentation part        0.6869763 magnetization 

 Broyden mixing:
  rms(total) = 0.18675E-04    rms(broyden)= 0.18620E-04
  rms(prec ) = 0.27267E-04
  weight for this iteration     100.00

 eigenvalues of (default mixing * dielectric matrix)
  average eigenvalue GAMMA=   2.5558
  8.7321  5.4928  4.0892  3.1158  2.7700  2.4568  2.0751  1.2265  1.0778  0.9226
  0.9226  0.9707  0.9707  0.9592

 Free energy of the ion-electron system (eV)
  ---------------------------------------------------
  alpha Z        PSCENC =         0.22409691
  Ewald energy   TEWEN  =        56.68788323
  -Hartree energ DENC   =      -451.28558838
  -exchange      EXHF   =         0.00000000
  -V(xc)+E(xc)   XCENC  =        34.01109413
  PAW double counting   =       559.24308284     -561.29898825
  entropy T*S    EENTRO =        -0.00000000
  eigenvalues    EBANDS =      -109.02754208
  atomic energy  EATOM  =       457.22046137
  Solvation  Ediel_sol  =         0.00000000
  ---------------------------------------------------
  free energy    TOTEN  =       -14.22550023 eV

  energy without entropy =      -14.22550023  energy(sigma->0) =      -14.22550023


--------------------------------------------------------------------------------------------------------




--------------------------------------- Iteration      1(  20)  ---------------------------------------


    POTLOK:  cpu time    0.1239: real time    0.1249
    SETDIJ:  cpu time    0.0018: real time    0.0018
     EDDAV:  cpu time    0.0672: real time    0.0676
       DOS:  cpu time    0.0002: real time    0.0001
    --------------------------------------------
      LOOP:  cpu time    0.1931: real time    0.1945

 eigenvalue-minimisations  :    16
 total energy-change (2. order) :-0.5242320E-06  (-0.1808669E-08)
 number of electron       8.0000083 magnetization 
 augmentation part        0.6869763 magnetization 

 Free energy of the ion-electron system (eV)
  ---------------------------------------------------
  alpha Z        PSCENC =         0.22409691
  Ewald energy   TEWEN  =        56.68788323
  -Hartree energ DENC   =      -451.28502494
  -exchange      EXHF   =         0.00000000
  -V(xc)+E(xc)   XCENC  =        34.01106183
  PAW double counting   =       559.23717721     -561.29308351
  entropy T*S    EENTRO =        -0.00000000
  eigenvalues    EBANDS =      -109.02807285
  atomic energy  EATOM  =       457.22046137
  Solvation  Ediel_sol  =         0.00000000
  ---------------------------------------------------
  free energy    TOTEN  =       -14.22550075 eV

  energy without entropy =      -14.22550075  energy(sigma->0) =      -14.22550075


--------------------------------------------------------------------------------------------------------




 average (electrostatic) potential at core
  the test charge radii are     0.7215  0.5201
  (the norm of the test charge is              1.0000)
       1 -80.5530       2 -44.5802       3 -44.5802
 
 
 
 E-fermi :  -6.6409     XC(G=0):  -0.5551     alpha+bet : -0.1300


 k-point     1 :       0.0000    0.0000    0.0000
  band No.  band energies     occupation 
      1     -25.2124      2.00000
      2     -12.9853      2.00000
      3      -9.1987      2.00000
      4      -7.1177      2.00000
      5      -0.9879      0.00000
      6       0.5162      0.00000
      7       0.7381      0.00000
      8       1.1092      0.00000


--------------------------------------------------------------------------------------------------------


 soft charge-density along one line, spin component           1
         0         1         2         3         4         5         6         7         8         9
 total charge-density along one line
 
 pseudopotential strength for first ion, spin component:           1
 13.800 -16.918  -0.000   0.121   0.000   0.000  -0.152  -0.000
-16.918  20.772   0.000  -0.154  -0.000  -0.000   0.195   0.000
 -0.000   0.000 -10.584   0.000   0.000  13.124  -0.000  -0.000
  0.121  -0.154   0.000 -10.490   0.000  -0.000  12.997  -0.000
  0.000  -0.000   0.000   0.000 -10.348  -0.000  -0.000  12.806
  0.000  -0.000  13.124  -0.000  -0.000 -16.202   0.000   0.000
 -0.152   0.195  -0.000  12.997  -0.000   0.000 -16.030   0.000
 -0.000   0.000  -0.000  -0.000  12.806   0.000   0.000 -15.773
 total augmentation occupancy for first ion, spin component:           1
  2.971   0.552   0.000  -0.411   0.000   0.000  -0.169   0.000
  0.552   0.151   0.000  -0.408   0.000   0.000  -0.080   0.000
  0.000   0.000   2.445   0.000   0.000   0.483   0.000   0.000
 -0.411  -0.408   0.000   2.352   0.000   0.000   0.358   0.000
  0.000   0.000   0.000   0.000   2.206   0.000   0.000   0.170
  0.000   0.000   0.483   0.000   0.000   0.095   0.000   0.000
 -0.169  -0.080   0.000   0.358   0.000   0.000   0.058   0.000
  0.000   0.000   0.000   0.000   0.170   0.000   0.000   0.013


------------------------ aborting loop because EDIFF is reached ----------------------------------------


    CHARGE:  cpu time    0.0378: real time    0.0381
    FORLOC:  cpu time    0.0058: real time    0.0058
    FORNL :  cpu time    0.0043: real time    0.0044
    STRESS:  cpu time    0.0381: real time    0.0383
    FORCOR:  cpu time    0.1161: real time    0.1168
    FORHAR:  cpu time    0.0357: real time    0.0360
    MIXING:  cpu time    0.0092: real time    0.0092
    OFIELD:  cpu time    0.0001: real time    0.0001

  FORCE on cell =-STRESS in cart. coord.  units (eV):
  Direction    XX          YY          ZZ          XY          YZ          ZX
  --------------------------------------------------------------------------------------
  Alpha Z     0.22410     0.22410     0.22410
  Ewald     -43.74620    76.71153    23.72251    -0.00000    -0.00000    -0.00000
  Hartree   139.25654   160.52146   151.50684    -0.00000    -0.00000    -0.00000
  E(xc)     -36.40732   -35.91557   -36.10898    -0.00000    -0.00000     0.00000
  Local    -205.37093  -311.42586  -264.32552     0.00000    -0.00000     0.00000
  n-local   -31.17272   -30.40681   -31.28466    -0.00000     0.00000    -0.00000
  augment     8.13079     5.76928     6.71082    -0.00000     0.00000    -0.00000
  Kinetic   168.21265   133.85840   148.72675    -0.00000     0.00000    -0.00000
  Fock        0.00000     0.00000     0.00000     0.00000     0.00000     0.00000
  -------------------------------------------------------------------------------------
  Total      -0.87309    -0.66347    -0.82813     0.00000     0.00000     0.00000
  in kB      -1.39788    -1.06226    -1.32591     0.00000     0.00000     0.00000
  external pressure =       -1.26 kB  Pullay stress =        0.00 kB


 VOLUME and BASIS-vectors are now :
 -----------------------------------------------------------------------------
  energy-cutoff  :      400.00
  volume of cell :     1000.69
      direct lattice vectors                 reciprocal lattice vectors
    10.000000000  0.000000000  0.000000000     0.100000000  0.000000000  0.000000000
     0.000000000 10.006045824  0.000000000     0.000000000  0.099939578  0.000000000
     0.000000000  0.000000000 10.000842425     0.000000000  0.000000000  0.099991576

  length of vectors
    10.000000000 10.006045824 10.000842425     0.100000000  0.099939578  0.099991576


 FORCES acting on ions
    electron-ion (+dipol)            ewald-force                    non-local-force                 convergence-correction
 -----------------------------------------------------------------------------------------------
   -.363E-15 0.201E-13 -.627E+02   -.530E-16 0.284E-13 0.112E+03   0.000E+00 0.000E+00 -.492E+02   0.427E-13 0.166E-13 0.859E-04
   0.164E-15 -.710E+02 0.511E+02   0.211E-17 0.777E+02 -.559E+02   -.517E-25 -.668E+01 0.485E+01   0.261E-14 0.353E-05 0.703E-05
   0.145E-15 0.710E+02 0.511E+02   0.383E-17 -.777E+02 -.559E+02   -.517E-25 0.668E+01 0.485E+01   0.314E-14 -.353E-05 0.703E-05
 -----------------------------------------------------------------------------------------------
   -.546E-16 0.426E-13 0.395E+02   -.471E-16 0.000E+00 0.711E-14   -.103E-24 -.888E-15 -.395E+02   0.484E-13 0.181E-13 0.999E-04
 
 
 POSITION                                       TOTAL-FORCE (eV/Angst)
 -----------------------------------------------------------------------------------
      0.00000      0.00000      0.12056        -0.000000      0.000000     -0.039555
      0.00000      0.76726      9.52311         0.000000      0.016301      0.019777
      0.00000      9.23878      9.52311         0.000000     -0.016301      0.019777
 -----------------------------------------------------------------------------------
    total drift:                                0.000000      0.000000     -0.009373


--------------------------------------------------------------------------------------------------------



  FREE ENERGIE OF THE ION-ELECTRON SYSTEM (eV)
  ---------------------------------------------------
  free  energy   TOTEN  =       -14.22550075 eV

  energy  without entropy=      -14.22550075  energy(sigma->0) =      -14.22550075
 


--------------------------------------------------------------------------------------------------------


    POTLOK:  cpu time    0.1282: real time    0.1290


--------------------------------------------------------------------------------------------------------


 stress matrix after NEB project (eV)
     -0.87309      0.00000      0.00000
      0.00000     -0.66347      0.00000
      0.00000      0.00000     -0.82813
  FORCES: max atom, RMS     0.039555    0.030975
  FORCE total and by dimension    0.053650    0.039555
  Stress total and by dimension    1.374148    0.873089


--------------------------------------------------------------------------------------------------------


  
 reached required accuracy - stopping structural energy minimisation
     LOOP+:  cpu time    4.8930: real time    4.9341
    4ORBIT:  cpu time    0.0000: real time    0.0000

 total amount of memory used by VASP MPI-rank0    39579. kBytes
=======================================================================

   base      :      30000. kBytes
   nonl-proj :        801. kBytes
   fftplans  :       3343. kBytes
   grid      :       5286. kBytes
   one-center:          3. kBytes
   wavefun   :        146. kBytes
 
  
  
 General timing and accounting informations for this job:
 ========================================================
  
                  Total CPU time used (sec):        5.966
                            User time (sec):        5.513
                          System time (sec):        0.453
                         Elapsed time (sec):        6.138
  
                   Maximum memory used (kb):       51920.
                   Average memory used (kb):           0.
  
                          Minor page faults:        30962
                          Major page faults:            6
                 Voluntary context switches:          740
