 vasp.5.4.4.18Apr17-6-g9f103f2a35 (build Apr 13 2025 12:23:30) complex          
  
 executed on             LinuxIFC date 2025.04.17  14:57:41
 running on   16 total cores
 distrk:  each k-point on   16 cores,    1 groups
 distr:  one band on NCORES_PER_BAND=   4 cores,    4 groups


--------------------------------------------------------------------------------------------------------


 INCAR:
 POTCAR:    PAW_PBE Co 02Aug2007                  
 POTCAR:    PAW_PBE O 08Apr2002                   
 POTCAR:    PAW_PBE Co 02Aug2007                  
   SHA256 =  0e690c60710354995174544f52f9f2c30879afabeffe3b3fbd4001cb294e56d4 Co
   COPYR  = (c) Copyright 02Aug2007 Georg Kresse                                
   COPYR  = This file is part of the software VASP. Any use, copying, and all ot
   COPYR  = If you do not have a valid VASP license, you may not use, copy or di
   VRHFIN =Co: d8 s1                                                            
   LEXCH  = PE                                                                  
   EATOM  =   813.3670 eV,   59.7808 Ry                                         
                                                                                
   TITEL  = PAW_PBE Co 02Aug2007                                                
   LULTRA =        F    use ultrasoft PP ?                                      
   IUNSCR =        1    unscreen: 0-lin 1-nonlin 2-no                           
   RPACOR =    2.000    partial core radius                                     
   POMASS =   58.933; ZVAL   =    9.000    mass and valenz                      
   RCORE  =    2.300    outmost cutoff radius                                   
   RWIGS  =    2.460; RWIGS  =    1.302    wigner-seitz radius (au A)           
   ENMAX  =  267.968; ENMIN  =  200.976 eV                                      
   RCLOC  =    1.203    cutoff for local pot                                    
   LCOR   =        T    correct aug charges                                     
   LPAW   =        T    paw PP                                                  
   EAUG   =  477.818                                                            
   DEXC   =    0.000                                                            
   RMAX   =    2.360    core radius for proj-oper                               
   RAUG   =    1.300    factor for augmentation sphere                          
   RDEP   =    2.393    radius for radial grids                                 
   RDEPT  =    1.864    core radius for aug-charge                              
                                                                                
   Atomic configuration                                                         
    9 entries                                                                   
     n  l   j            E        occ.                                          
     1  0  0.50     -7587.6674   2.0000                                         
     2  0  0.50      -893.6084   2.0000                                         
     2  1  1.50      -764.5805   6.0000                                         
     3  0  0.50       -97.5973   2.0000                                         
     3  1  1.50       -60.9648   6.0000                                         
     3  2  2.50        -4.2382   8.0000                                         
     4  0  0.50        -4.3746   1.0000                                         
     4  1  1.50        -4.0817   0.0000                                         
     4  3  2.50        -1.3606   0.0000                                         
   Description                                                                  
     l       E           TYP  RCUT    TYP  RCUT                                 
     2     -4.2382362     23  2.300                                             
     2     -5.5988188     23  2.300                                             
     0     -4.3745797     23  2.300                                             
     0      5.7660125     23  2.300                                             
     1     -2.7211652     23  2.300                                             
     1     16.9860234     23  2.300                                             
  local pseudopotential read in
  partial core-charges read in
  partial kinetic energy density read in
  atomic valenz-charges read in
  non local Contribution for L=           2  read in
    real space projection operators read in
  non local Contribution for L=           2  read in
    real space projection operators read in
  non local Contribution for L=           0  read in
    real space projection operators read in
  non local Contribution for L=           0  read in
    real space projection operators read in
  non local Contribution for L=           1  read in
    real space projection operators read in
  non local Contribution for L=           1  read in
    real space projection operators read in
    PAW grid and wavefunctions read in
 
   number of l-projection  operators is LMAX  =           6
   number of lm-projection operators is LMMAX =          18
 
 POTCAR:    PAW_PBE O 08Apr2002                   
   SHA256 =  818f92134a0a090dccd8ba1447fa70422a3b330e708bb4f08108d8ae51209ddf O/
   COPYR  = (c) Copyright 08Apr2002 Georg Kresse                                
   COPYR  = This file is part of the software VASP. Any use, copying, and all ot
   COPYR  = If you do not have a valid VASP license, you may not use, copy or di
   VRHFIN =O: s2p4                                                              
   LEXCH  = PE                                                                  
   EATOM  =   432.3788 eV,   31.7789 Ry                                         
                                                                                
   TITEL  = PAW_PBE O 08Apr2002                                                 
   LULTRA =        F    use ultrasoft PP ?                                      
   IUNSCR =        1    unscreen: 0-lin 1-nonlin 2-no                           
   RPACOR =    1.200    partial core radius                                     
   POMASS =   16.000; ZVAL   =    6.000    mass and valenz                      
   RCORE  =    1.520    outmost cutoff radius                                   
   RWIGS  =    1.550; RWIGS  =    0.820    wigner-seitz radius (au A)           
   ENMAX  =  400.000; ENMIN  =  300.000 eV                                      
   ICORE  =        2    local potential                                         
   LCOR   =        T    correct aug charges                                     
   LPAW   =        T    paw PP                                                  
   EAUG   =  605.392                                                            
   DEXC   =    0.000                                                            
   RMAX   =    1.553    core radius for proj-oper                               
   RAUG   =    1.300    factor for augmentation sphere                          
   RDEP   =    1.550    radius for radial grids                                 
   RDEPT  =    1.329    core radius for aug-charge                              
                                                                                
   Atomic configuration                                                         
    4 entries                                                                   
     n  l   j            E        occ.                                          
     1  0  0.50      -514.6923   2.0000                                         
     2  0  0.50       -23.9615   2.0000                                         
     2  1  0.50        -9.0305   4.0000                                         
     3  2  1.50        -9.5241   0.0000                                         
   Description                                                                  
     l       E           TYP  RCUT    TYP  RCUT                                 
     0    -23.9615318     23  1.200                                             
     0     -9.5240782     23  1.200                                             
     1     -9.0304911     23  1.520                                             
     1      8.1634956     23  1.520                                             
     2     -9.5240782      7  1.500                                             
  local pseudopotential read in
  partial core-charges read in
  partial kinetic energy density read in
  kinetic energy density of atom read in
  atomic valenz-charges read in
  non local Contribution for L=           0  read in
    real space projection operators read in
  non local Contribution for L=           0  read in
    real space projection operators read in
  non local Contribution for L=           1  read in
    real space projection operators read in
  non local Contribution for L=           1  read in
    real space projection operators read in
    PAW grid and wavefunctions read in
 
   number of l-projection  operators is LMAX  =           4
   number of lm-projection operators is LMMAX =           8
 
  PAW_PBE Co 02Aug2007                  :
 energy of atom  1       EATOM= -813.3670
 kinetic energy error for atom=    0.0093 (will be added to EATOM!!)
  PAW_PBE O 08Apr2002                   :
 energy of atom  2       EATOM= -432.3788
 kinetic energy error for atom=    0.1156 (will be added to EATOM!!)
 
 
 POSCAR: Co O                                    
  positions in cartesian coordinates
  No initial velocities read in
 exchange correlation table for  LEXCH =        8
   RHO(1)=    0.500       N(1)  =     2000
   RHO(2)=  100.500       N(2)  =     4000

 VTST: version 3.2, (02/03/18)

 CHAIN: initializing optimizer
 
 OPT: Using VASP Conjugate-Gradient optimizer
 CHAIN: Read ICHAIN            0
 
 POSCAR: Co O                                    
  positions in cartesian coordinates
  No initial velocities read in
 


--------------------------------------------------------------------------------------------------------


 ion  position               nearest neighbor table
   1  0.000  0.000  0.000-   3 2.15   3 2.15   3 2.15   3 2.15   4 2.15   4 2.15   2 3.03   2 3.03
                             2 3.03   2 3.03   2 3.03   2 3.03   2 3.03   2 3.03
   2  0.500  0.500  1.000-   4 2.15   4 2.15   4 2.15   4 2.15   3 2.15   3 2.15   1 3.03   1 3.03
                             1 3.03   1 3.03   1 3.03   1 3.03   1 3.03   1 3.03
   3  1.000  0.500  0.500-   1 2.15   1 2.15   1 2.15   1 2.15   2 2.15   2 2.15
   4  0.500  0.000  0.500-   2 2.15   2 2.15   2 2.15   2 2.15   1 2.15   1 2.15
 
  LATTYP: Found a simple monoclinic cell.
 ALAT       =     5.2567393825
 B/A-ratio  =     0.5772895335
 C/A-ratio  =     1.4142069745
 COS(beta)  =    -0.9428183433
  
  Lattice vectors:
  
 A1 = (  -1.7243926216,   0.0000000000,  -4.9658613575)
 A2 = (   0.0000000000,  -3.0346606259,   0.0000000000)
 A3 = (  -0.0415316812,   0.0000000000,   7.4340014856)


Analysis of symmetry for initial positions (statically):
=====================================================================
 Subroutine PRICEL returns following result:
 
  LATTYP: Found a base centered monoclinic cell.
 ALAT       =     5.2563244641
 B/A-ratio  =     0.5773351030
 C/A-ratio  =     0.8165326115
 COS(beta)  =    -0.7071007656
  
  Lattice vectors:
  
 A1 = (   2.6281206132,   1.5173303129,   0.0147905513)
 A2 = (   2.6281206132,  -1.5173303129,   0.0147905513)
 A3 = (  -3.4903169236,   0.0000000000,  -2.4977212307)
 
   2 primitive cells build up your supercell.
 

 Routine SETGRP: Setting up the symmetry group for a 
 simple monoclinic supercell.


 Subroutine GETGRP returns: Found  4 space group operations
 (whereof  4 operations were pure point group operations)
 out of a pool of  4 trial point group operations.


The static configuration has the point symmetry C_2h.


Analysis of symmetry for dynamics (positions and initial velocities):
=====================================================================
 Subroutine PRICEL returns following result:
 
  LATTYP: Found a base centered monoclinic cell.
 ALAT       =     5.2563244641
 B/A-ratio  =     0.5773351030
 C/A-ratio  =     0.8165326115
 COS(beta)  =    -0.7071007656
  
  Lattice vectors:
  
 A1 = (   2.6281206132,   1.5173303129,   0.0147905513)
 A2 = (   2.6281206132,  -1.5173303129,   0.0147905513)
 A3 = (  -3.4903169236,   0.0000000000,  -2.4977212307)
 
   2 primitive cells build up your supercell.
 

 Routine SETGRP: Setting up the symmetry group for a 
 simple monoclinic supercell.


 Subroutine GETGRP returns: Found  4 space group operations
 (whereof  4 operations were pure point group operations)
 out of a pool of  4 trial point group operations.


The dynamic configuration has the point symmetry C_2h.


 Subroutine INISYM returns: Found  4 space group operations
 (whereof  4 operations are pure point group operations),
 and found     2 'primitive' translations

 
 
 KPOINTS: KPOINTS created by Atomic Simulation Env

Automatic generation of k-mesh.
Space group operators:
 irot       det(A)        alpha          n_x          n_y          n_z        tau_x        tau_y        tau_z
    1     1.000000     0.000000     1.000000     0.000000     0.000000     0.000000     0.000000     0.000000
    2    -1.000000     0.000000     1.000000     0.000000     0.000000     0.000000     0.000000     0.000000
    3     1.000000   180.000000     0.000000     1.000000     0.000000     0.000000     0.000000     0.000000
    4    -1.000000   180.000000     0.000000     1.000000     0.000000     0.000000     0.000000     0.000000
 
 Subroutine IBZKPT returns following result:
 ===========================================
 
 Found    192 irreducible k-points:
 
 Following reciprocal coordinates:
            Coordinates               Weight
  0.000000  0.000000  0.000000      1.000000
  0.166667  0.000000 -0.000000      2.000000
  0.333333  0.000000 -0.000000      2.000000
  0.500000  0.000000 -0.000000      1.000000
  0.000000  0.100000  0.000000      2.000000
  0.166667  0.100000 -0.000000      4.000000
  0.333333  0.100000 -0.000000      4.000000
  0.500000  0.100000 -0.000000      2.000000
  0.000000  0.200000  0.000000      2.000000
  0.166667  0.200000 -0.000000      4.000000
  0.333333  0.200000 -0.000000      4.000000
  0.500000  0.200000 -0.000000      2.000000
  0.000000  0.300000  0.000000      2.000000
  0.166667  0.300000 -0.000000      4.000000
  0.333333  0.300000 -0.000000      4.000000
  0.500000  0.300000 -0.000000      2.000000
  0.000000  0.400000  0.000000      2.000000
  0.166667  0.400000 -0.000000      4.000000
  0.333333  0.400000 -0.000000      4.000000
  0.500000  0.400000 -0.000000      2.000000
  0.000000  0.500000  0.000000      1.000000
  0.166667  0.500000 -0.000000      2.000000
  0.333333  0.500000 -0.000000      2.000000
  0.500000  0.500000 -0.000000      1.000000
  0.000000  0.000000  0.100000      2.000000
  0.166667  0.000000  0.100000      2.000000
  0.333333  0.000000  0.100000      2.000000
  0.500000  0.000000  0.100000      2.000000
 -0.333333  0.000000  0.100000      2.000000
 -0.166667  0.000000  0.100000      2.000000
  0.000000  0.100000  0.100000      4.000000
  0.166667  0.100000  0.100000      4.000000
  0.333333  0.100000  0.100000      4.000000
  0.500000  0.100000  0.100000      4.000000
 -0.333333  0.100000  0.100000      4.000000
 -0.166667  0.100000  0.100000      4.000000
  0.000000  0.200000  0.100000      4.000000
  0.166667  0.200000  0.100000      4.000000
  0.333333  0.200000  0.100000      4.000000
  0.500000  0.200000  0.100000      4.000000
 -0.333333  0.200000  0.100000      4.000000
 -0.166667  0.200000  0.100000      4.000000
  0.000000  0.300000  0.100000      4.000000
  0.166667  0.300000  0.100000      4.000000
  0.333333  0.300000  0.100000      4.000000
  0.500000  0.300000  0.100000      4.000000
 -0.333333  0.300000  0.100000      4.000000
 -0.166667  0.300000  0.100000      4.000000
  0.000000  0.400000  0.100000      4.000000
  0.166667  0.400000  0.100000      4.000000
  0.333333  0.400000  0.100000      4.000000
  0.500000  0.400000  0.100000      4.000000
 -0.333333  0.400000  0.100000      4.000000
 -0.166667  0.400000  0.100000      4.000000
  0.000000  0.500000  0.100000      2.000000
  0.166667  0.500000  0.100000      2.000000
  0.333333  0.500000  0.100000      2.000000
  0.500000  0.500000  0.100000      2.000000
 -0.333333  0.500000  0.100000      2.000000
 -0.166667  0.500000  0.100000      2.000000
  0.000000  0.000000  0.200000      2.000000
  0.166667  0.000000  0.200000      2.000000
  0.333333  0.000000  0.200000      2.000000
  0.500000  0.000000  0.200000      2.000000
 -0.333333  0.000000  0.200000      2.000000
 -0.166667  0.000000  0.200000      2.000000
  0.000000  0.100000  0.200000      4.000000
  0.166667  0.100000  0.200000      4.000000
  0.333333  0.100000  0.200000      4.000000
  0.500000  0.100000  0.200000      4.000000
 -0.333333  0.100000  0.200000      4.000000
 -0.166667  0.100000  0.200000      4.000000
  0.000000  0.200000  0.200000      4.000000
  0.166667  0.200000  0.200000      4.000000
  0.333333  0.200000  0.200000      4.000000
  0.500000  0.200000  0.200000      4.000000
 -0.333333  0.200000  0.200000      4.000000
 -0.166667  0.200000  0.200000      4.000000
  0.000000  0.300000  0.200000      4.000000
  0.166667  0.300000  0.200000      4.000000
  0.333333  0.300000  0.200000      4.000000
  0.500000  0.300000  0.200000      4.000000
 -0.333333  0.300000  0.200000      4.000000
 -0.166667  0.300000  0.200000      4.000000
  0.000000  0.400000  0.200000      4.000000
  0.166667  0.400000  0.200000      4.000000
  0.333333  0.400000  0.200000      4.000000
  0.500000  0.400000  0.200000      4.000000
 -0.333333  0.400000  0.200000      4.000000
 -0.166667  0.400000  0.200000      4.000000
  0.000000  0.500000  0.200000      2.000000
  0.166667  0.500000  0.200000      2.000000
  0.333333  0.500000  0.200000      2.000000
  0.500000  0.500000  0.200000      2.000000
 -0.333333  0.500000  0.200000      2.000000
 -0.166667  0.500000  0.200000      2.000000
 -0.000000  0.000000  0.300000      2.000000
  0.166667  0.000000  0.300000      2.000000
  0.333333  0.000000  0.300000      2.000000
  0.500000  0.000000  0.300000      2.000000
 -0.333333  0.000000  0.300000      2.000000
 -0.166667  0.000000  0.300000      2.000000
 -0.000000  0.100000  0.300000      4.000000
  0.166667  0.100000  0.300000      4.000000
  0.333333  0.100000  0.300000      4.000000
  0.500000  0.100000  0.300000      4.000000
 -0.333333  0.100000  0.300000      4.000000
 -0.166667  0.100000  0.300000      4.000000
 -0.000000  0.200000  0.300000      4.000000
  0.166667  0.200000  0.300000      4.000000
  0.333333  0.200000  0.300000      4.000000
  0.500000  0.200000  0.300000      4.000000
 -0.333333  0.200000  0.300000      4.000000
 -0.166667  0.200000  0.300000      4.000000
 -0.000000  0.300000  0.300000      4.000000
  0.166667  0.300000  0.300000      4.000000
  0.333333  0.300000  0.300000      4.000000
  0.500000  0.300000  0.300000      4.000000
 -0.333333  0.300000  0.300000      4.000000
 -0.166667  0.300000  0.300000      4.000000
 -0.000000  0.400000  0.300000      4.000000
  0.166667  0.400000  0.300000      4.000000
  0.333333  0.400000  0.300000      4.000000
  0.500000  0.400000  0.300000      4.000000
 -0.333333  0.400000  0.300000      4.000000
 -0.166667  0.400000  0.300000      4.000000
 -0.000000  0.500000  0.300000      2.000000
  0.166667  0.500000  0.300000      2.000000
  0.333333  0.500000  0.300000      2.000000
  0.500000  0.500000  0.300000      2.000000
 -0.333333  0.500000  0.300000      2.000000
 -0.166667  0.500000  0.300000      2.000000
  0.000000  0.000000  0.400000      2.000000
  0.166667  0.000000  0.400000      2.000000
  0.333333  0.000000  0.400000      2.000000
  0.500000  0.000000  0.400000      2.000000
 -0.333333  0.000000  0.400000      2.000000
 -0.166667  0.000000  0.400000      2.000000
  0.000000  0.100000  0.400000      4.000000
  0.166667  0.100000  0.400000      4.000000
  0.333333  0.100000  0.400000      4.000000
  0.500000  0.100000  0.400000      4.000000
 -0.333333  0.100000  0.400000      4.000000
 -0.166667  0.100000  0.400000      4.000000
  0.000000  0.200000  0.400000      4.000000
  0.166667  0.200000  0.400000      4.000000
  0.333333  0.200000  0.400000      4.000000
  0.500000  0.200000  0.400000      4.000000
 -0.333333  0.200000  0.400000      4.000000
 -0.166667  0.200000  0.400000      4.000000
  0.000000  0.300000  0.400000      4.000000
  0.166667  0.300000  0.400000      4.000000
  0.333333  0.300000  0.400000      4.000000
  0.500000  0.300000  0.400000      4.000000
 -0.333333  0.300000  0.400000      4.000000
 -0.166667  0.300000  0.400000      4.000000
  0.000000  0.400000  0.400000      4.000000
  0.166667  0.400000  0.400000      4.000000
  0.333333  0.400000  0.400000      4.000000
  0.500000  0.400000  0.400000      4.000000
 -0.333333  0.400000  0.400000      4.000000
 -0.166667  0.400000  0.400000      4.000000
  0.000000  0.500000  0.400000      2.000000
  0.166667  0.500000  0.400000      2.000000
  0.333333  0.500000  0.400000      2.000000
  0.500000  0.500000  0.400000      2.000000
 -0.333333  0.500000  0.400000      2.000000
 -0.166667  0.500000  0.400000      2.000000
 -0.000000  0.000000  0.500000      1.000000
  0.166667  0.000000  0.500000      2.000000
  0.333333  0.000000  0.500000      2.000000
  0.500000  0.000000  0.500000      1.000000
 -0.000000  0.100000  0.500000      2.000000
  0.166667  0.100000  0.500000      4.000000
  0.333333  0.100000  0.500000      4.000000
  0.500000  0.100000  0.500000      2.000000
 -0.000000  0.200000  0.500000      2.000000
  0.166667  0.200000  0.500000      4.000000
  0.333333  0.200000  0.500000      4.000000
  0.500000  0.200000  0.500000      2.000000
 -0.000000  0.300000  0.500000      2.000000
  0.166667  0.300000  0.500000      4.000000
  0.333333  0.300000  0.500000      4.000000
  0.500000  0.300000  0.500000      2.000000
 -0.000000  0.400000  0.500000      2.000000
  0.166667  0.400000  0.500000      4.000000
  0.333333  0.400000  0.500000      4.000000
  0.500000  0.400000  0.500000      2.000000
 -0.000000  0.500000  0.500000      1.000000
  0.166667  0.500000  0.500000      2.000000
  0.333333  0.500000  0.500000      2.000000
  0.500000  0.500000  0.500000      1.000000
 
 Following cartesian coordinates:
            Coordinates               Weight
  0.000000  0.000000  0.000000      1.000000
  0.031581  0.000000  0.022596      2.000000
  0.063162  0.000000  0.045192      2.000000
  0.094744  0.000000  0.067788      1.000000
  0.000000  0.032953  0.000000      2.000000
  0.031581  0.032953  0.022596      4.000000
  0.063162  0.032953  0.045192      4.000000
  0.094744  0.032953  0.067788      2.000000
  0.000000  0.065905  0.000000      2.000000
  0.031581  0.065905  0.022596      4.000000
  0.063162  0.065905  0.045192      4.000000
  0.094744  0.065905  0.067788      2.000000
  0.000000  0.098858  0.000000      2.000000
  0.031581  0.098858  0.022596      4.000000
  0.063162  0.098858  0.045192      4.000000
  0.094744  0.098858  0.067788      2.000000
  0.000000  0.131810  0.000000      2.000000
  0.031581  0.131810  0.022596      4.000000
  0.063162  0.131810  0.045192      4.000000
  0.094744  0.131810  0.067788      2.000000
  0.000000  0.164763  0.000000      1.000000
  0.031581  0.164763  0.022596      2.000000
  0.063162  0.164763  0.045192      2.000000
  0.094744  0.164763  0.067788      1.000000
 -0.000227  0.000000  0.040354      2.000000
  0.031354  0.000000  0.062950      2.000000
  0.062935  0.000000  0.085546      2.000000
  0.094516  0.000000  0.108142      2.000000
 -0.063389  0.000000 -0.004838      2.000000
 -0.031808  0.000000  0.017758      2.000000
 -0.000227  0.032953  0.040354      4.000000
  0.031354  0.032953  0.062950      4.000000
  0.062935  0.032953  0.085546      4.000000
  0.094516  0.032953  0.108142      4.000000
 -0.063389  0.032953 -0.004838      4.000000
 -0.031808  0.032953  0.017758      4.000000
 -0.000227  0.065905  0.040354      4.000000
  0.031354  0.065905  0.062950      4.000000
  0.062935  0.065905  0.085546      4.000000
  0.094516  0.065905  0.108142      4.000000
 -0.063389  0.065905 -0.004838      4.000000
 -0.031808  0.065905  0.017758      4.000000
 -0.000227  0.098858  0.040354      4.000000
  0.031354  0.098858  0.062950      4.000000
  0.062935  0.098858  0.085546      4.000000
  0.094516  0.098858  0.108142      4.000000
 -0.063389  0.098858 -0.004838      4.000000
 -0.031808  0.098858  0.017758      4.000000
 -0.000227  0.131810  0.040354      4.000000
  0.031354  0.131810  0.062950      4.000000
  0.062935  0.131810  0.085546      4.000000
  0.094516  0.131810  0.108142      4.000000
 -0.063389  0.131810 -0.004838      4.000000
 -0.031808  0.131810  0.017758      4.000000
 -0.000227  0.164763  0.040354      2.000000
  0.031354  0.164763  0.062950      2.000000
  0.062935  0.164763  0.085546      2.000000
  0.094516  0.164763  0.108142      2.000000
 -0.063389  0.164763 -0.004838      2.000000
 -0.031808  0.164763  0.017758      2.000000
 -0.000454  0.000000  0.080708      2.000000
  0.031127  0.000000  0.103304      2.000000
  0.062708  0.000000  0.125900      2.000000
  0.094289  0.000000  0.148496      2.000000
 -0.063617  0.000000  0.035516      2.000000
 -0.032035  0.000000  0.058112      2.000000
 -0.000454  0.032953  0.080708      4.000000
  0.031127  0.032953  0.103304      4.000000
  0.062708  0.032953  0.125900      4.000000
  0.094289  0.032953  0.148496      4.000000
 -0.063617  0.032953  0.035516      4.000000
 -0.032035  0.032953  0.058112      4.000000
 -0.000454  0.065905  0.080708      4.000000
  0.031127  0.065905  0.103304      4.000000
  0.062708  0.065905  0.125900      4.000000
  0.094289  0.065905  0.148496      4.000000
 -0.063617  0.065905  0.035516      4.000000
 -0.032035  0.065905  0.058112      4.000000
 -0.000454  0.098858  0.080708      4.000000
  0.031127  0.098858  0.103304      4.000000
  0.062708  0.098858  0.125900      4.000000
  0.094289  0.098858  0.148496      4.000000
 -0.063617  0.098858  0.035516      4.000000
 -0.032035  0.098858  0.058112      4.000000
 -0.000454  0.131810  0.080708      4.000000
  0.031127  0.131810  0.103304      4.000000
  0.062708  0.131810  0.125900      4.000000
  0.094289  0.131810  0.148496      4.000000
 -0.063617  0.131810  0.035516      4.000000
 -0.032035  0.131810  0.058112      4.000000
 -0.000454  0.164763  0.080708      2.000000
  0.031127  0.164763  0.103304      2.000000
  0.062708  0.164763  0.125900      2.000000
  0.094289  0.164763  0.148496      2.000000
 -0.063617  0.164763  0.035516      2.000000
 -0.032035  0.164763  0.058112      2.000000
 -0.000681  0.000000  0.121062      2.000000
  0.030900  0.000000  0.143657      2.000000
  0.062481  0.000000  0.166253      2.000000
  0.094062  0.000000  0.188849      2.000000
 -0.063844  0.000000  0.075870      2.000000
 -0.032262  0.000000  0.098466      2.000000
 -0.000681  0.032953  0.121062      4.000000
  0.030900  0.032953  0.143657      4.000000
  0.062481  0.032953  0.166253      4.000000
  0.094062  0.032953  0.188849      4.000000
 -0.063844  0.032953  0.075870      4.000000
 -0.032262  0.032953  0.098466      4.000000
 -0.000681  0.065905  0.121062      4.000000
  0.030900  0.065905  0.143657      4.000000
  0.062481  0.065905  0.166253      4.000000
  0.094062  0.065905  0.188849      4.000000
 -0.063844  0.065905  0.075870      4.000000
 -0.032262  0.065905  0.098466      4.000000
 -0.000681  0.098858  0.121062      4.000000
  0.030900  0.098858  0.143657      4.000000
  0.062481  0.098858  0.166253      4.000000
  0.094062  0.098858  0.188849      4.000000
 -0.063844  0.098858  0.075870      4.000000
 -0.032262  0.098858  0.098466      4.000000
 -0.000681  0.131810  0.121062      4.000000
  0.030900  0.131810  0.143657      4.000000
  0.062481  0.131810  0.166253      4.000000
  0.094062  0.131810  0.188849      4.000000
 -0.063844  0.131810  0.075870      4.000000
 -0.032262  0.131810  0.098466      4.000000
 -0.000681  0.164763  0.121062      2.000000
  0.030900  0.164763  0.143657      2.000000
  0.062481  0.164763  0.166253      2.000000
  0.094062  0.164763  0.188849      2.000000
 -0.063844  0.164763  0.075870      2.000000
 -0.032262  0.164763  0.098466      2.000000
 -0.000908  0.000000  0.161415      2.000000
  0.030673  0.000000  0.184011      2.000000
  0.062254  0.000000  0.206607      2.000000
  0.093835  0.000000  0.229203      2.000000
 -0.064071  0.000000  0.116224      2.000000
 -0.032490  0.000000  0.138819      2.000000
 -0.000908  0.032953  0.161415      4.000000
  0.030673  0.032953  0.184011      4.000000
  0.062254  0.032953  0.206607      4.000000
  0.093835  0.032953  0.229203      4.000000
 -0.064071  0.032953  0.116224      4.000000
 -0.032490  0.032953  0.138819      4.000000
 -0.000908  0.065905  0.161415      4.000000
  0.030673  0.065905  0.184011      4.000000
  0.062254  0.065905  0.206607      4.000000
  0.093835  0.065905  0.229203      4.000000
 -0.064071  0.065905  0.116224      4.000000
 -0.032490  0.065905  0.138819      4.000000
 -0.000908  0.098858  0.161415      4.000000
  0.030673  0.098858  0.184011      4.000000
  0.062254  0.098858  0.206607      4.000000
  0.093835  0.098858  0.229203      4.000000
 -0.064071  0.098858  0.116224      4.000000
 -0.032490  0.098858  0.138819      4.000000
 -0.000908  0.131810  0.161415      4.000000
  0.030673  0.131810  0.184011      4.000000
  0.062254  0.131810  0.206607      4.000000
  0.093835  0.131810  0.229203      4.000000
 -0.064071  0.131810  0.116224      4.000000
 -0.032490  0.131810  0.138819      4.000000
 -0.000908  0.164763  0.161415      2.000000
  0.030673  0.164763  0.184011      2.000000
  0.062254  0.164763  0.206607      2.000000
  0.093835  0.164763  0.229203      2.000000
 -0.064071  0.164763  0.116224      2.000000
 -0.032490  0.164763  0.138819      2.000000
 -0.001136  0.000000  0.201769      1.000000
  0.030446  0.000000  0.224365      2.000000
  0.062027  0.000000  0.246961      2.000000
  0.093608  0.000000  0.269557      1.000000
 -0.001136  0.032953  0.201769      2.000000
  0.030446  0.032953  0.224365      4.000000
  0.062027  0.032953  0.246961      4.000000
  0.093608  0.032953  0.269557      2.000000
 -0.001136  0.065905  0.201769      2.000000
  0.030446  0.065905  0.224365      4.000000
  0.062027  0.065905  0.246961      4.000000
  0.093608  0.065905  0.269557      2.000000
 -0.001136  0.098858  0.201769      2.000000
  0.030446  0.098858  0.224365      4.000000
  0.062027  0.098858  0.246961      4.000000
  0.093608  0.098858  0.269557      2.000000
 -0.001136  0.131810  0.201769      2.000000
  0.030446  0.131810  0.224365      4.000000
  0.062027  0.131810  0.246961      4.000000
  0.093608  0.131810  0.269557      2.000000
 -0.001136  0.164763  0.201769      1.000000
  0.030446  0.164763  0.224365      2.000000
  0.062027  0.164763  0.246961      2.000000
  0.093608  0.164763  0.269557      1.000000
 


--------------------------------------------------------------------------------------------------------




 Dimension of arrays:
   k-points           NKPTS =    192   k-points in BZ     NKDIM =    192   number of bands    NBANDS=     20
   number of dos      NEDOS =    301   number of ions     NIONS =      4
   non local maximal  LDIM  =      6   non local SUM 2l+1 LMDIM =     18
   total plane-waves  NPLWV =   7168
   max r-space proj   IRMAX =      1   max aug-charges    IRDMAX=   7351
   dimension x,y,z NGX =    28 NGY =   16 NGZ =   16
   dimension x,y,z NGXF=    56 NGYF=   32 NGZF=   32
   support grid    NGXF=    56 NGYF=   32 NGZF=   32
   ions per type =               2   2
   NGX,Y,Z   is equivalent  to a cutoff of   8.86,  8.77,  8.76 a.u.
   NGXF,Y,Z  is equivalent  to a cutoff of  17.71, 17.53, 17.53 a.u.

 SYSTEM =  unknown system                          
 POSCAR =  Co O                                    

 Startparameter for this run:
   NWRITE =      2    write-flag & timer
   PREC   = normal    normal or accurate (medium, high low for compatibility)
   ISTART =      0    job   : 0-new  1-cont  2-samecut
   ICHARG =      2    charge: 1-file 2-atom 10-const
   ISPIN  =      1    spin polarized calculation?
   LNONCOLLINEAR =      F non collinear calculations
   LSORBIT =      F    spin-orbit coupling
   INIWAV =      1    electr: 0-lowe 1-rand  2-diag
   LASPH  =      F    aspherical Exc in radial PAW
   METAGGA=      F    non-selfconsistent MetaGGA calc.

 Electronic Relaxation 1
   ENCUT  =  400.0 eV  29.40 Ry    5.42 a.u.   8.57  4.95  4.95*2*pi/ulx,y,z
   ENINI  =  400.0     initial cutoff
   ENAUG  =  605.4 eV  augmentation charge cutoff
   NELM   =     60;   NELMIN=  4; NELMDL= -5     # of ELM steps 
   EDIFF  = 0.1E-05   stopping-criterion for ELM
   LREAL  =      F    real-space projection
   NLSPLINE    = F    spline interpolate recip. space projectors
   LCOMPAT=      F    compatible to vasp.4.4
   GGA_COMPAT  = T    GGA compatible to vasp.4.4-vasp.4.6
   LMAXPAW     = -100 max onsite density
   LMAXMIX     =    2 max onsite mixed and CHGCAR
   VOSKOWN=      0    Vosko Wilk Nusair interpolation
   ROPT   =    0.00000   0.00000
 Ionic relaxation
   EDIFFG = 0.1E-01   stopping-criterion for IOM
   NSW    =     20    number of steps for IOM
   NBLOCK =      1;   KBLOCK =     20    inner block; outer block 
   IBRION =      2    ionic relax: 0-MD 1-quasi-New 2-CG
   NFREE  =      1    steps in history (QN), initial steepest desc. (CG)
   ISIF   =      3    stress and relaxation
   IWAVPR =     11    prediction:  0-non 1-charg 2-wave 3-comb
   ISYM   =      2    0-nonsym 1-usesym 2-fastsym
   LCORR  =      T    Harris-Foulkes like correction to forces

   POTIM  = 0.5000    time-step for ionic-motion
   TEIN   =    0.0    initial temperature
   TEBEG  =    0.0;   TEEND  =   0.0 temperature during run
   SMASS  =  -3.00    Nose mass-parameter (am)
   estimated Nose-frequenzy (Omega)   =  0.10E-29 period in steps =****** mass=  -0.631E-27a.u.
   SCALEE = 1.0000    scale energy and forces
   NPACO  =    256;   APACO  = 16.0  distance and # of slots for P.C.
   PSTRESS=    0.0 pullay stress

  Mass of Ions in am
   POMASS =  58.93 16.00
  Ionic Valenz
   ZVAL   =   9.00  6.00
  Atomic Wigner-Seitz radii
   RWIGS  =  -1.00 -1.00
  virtual crystal weights 
   VCA    =   1.00  1.00
   NELECT =      30.0000    total number of electrons
   NUPDOWN=      -1.0000    fix difference up-down

 DOS related values:
   EMIN   =  10.00;   EMAX   =-10.00  energy-range for DOS
   EFERMI =   0.00
   ISMEAR =     0;   SIGMA  =   0.10  broadening in eV -4-tet -1-fermi 0-gaus

 Electronic relaxation 2 (details)
   IALGO  =     38    algorithm
   LDIAG  =      T    sub-space diagonalisation (order eigenvalues)
   LSUBROT=      F    optimize rotation matrix (better conditioning)
   TURBO    =      0    0=normal 1=particle mesh
   IRESTART =      0    0=no restart 2=restart with 2 vectors
   NREBOOT  =      0    no. of reboots
   NMIN     =      0    reboot dimension
   EREF     =   0.00    reference energy to select bands
   IMIX   =      4    mixing-type and parameters
     AMIX     =   0.40;   BMIX     =  1.00
     AMIX_MAG =   1.60;   BMIX_MAG =  1.00
     AMIN     =   0.10
     WC   =   100.;   INIMIX=   1;  MIXPRE=   1;  MAXMIX= -45

 Intra band minimization:
   WEIMIN = 0.0010     energy-eigenvalue tresh-hold
   EBREAK =  0.12E-07  absolut break condition
   DEPER  =   0.30     relativ break condition  

   TIME   =   0.40     timestep for ELM

  volume/ion in A,a.u.               =       9.88        66.69
  Fermi-wavevector in a.u.,A,eV,Ry     =   1.493305  2.821937 30.340433  2.229959
  Thomas-Fermi vector in A             =   2.605722
 
 Write flags
   LWAVE        =      F    write WAVECAR
   LDOWNSAMPLE  =      F    k-point downsampling of WAVECAR
   LCHARG       =      F    write CHGCAR
   LVTOT        =      F    write LOCPOT, total local potential
   LVHAR        =      F    write LOCPOT, Hartree potential only
   LELF         =      F    write electronic localiz. function (ELF)
   LORBIT       =      0    0 simple, 1 ext, 2 COOP (PROOUT), +10 PAW based schemes


 Dipole corrections
   LMONO  =      F    monopole corrections only (constant potential shift)
   LDIPOL =      F    correct potential (dipole corrections)
   IDIPOL =      0    1-x, 2-y, 3-z, 4-all directions 
   EPSILON=  1.0000000 bulk dielectric constant

 Exchange correlation treatment:
   GGA     =    PE    GGA type
   LEXCH   =     8    internal setting for exchange type
   VOSKOWN=      0    Vosko Wilk Nusair interpolation
   LHFCALC =     F    Hartree Fock is set to
   LHFONE  =     F    Hartree Fock one center treatment
   AEXX    =    0.0000 exact exchange contribution

 Linear response parameters
   LEPSILON=     F    determine dielectric tensor
   LRPA    =     F    only Hartree local field effects (RPA)
   LNABLA  =     F    use nabla operator in PAW spheres
   LVEL    =     F    velocity operator in full k-point grid
   LINTERFAST=   F  fast interpolation
   KINTER  =     0    interpolate to denser k-point grid
   CSHIFT  =0.1000    complex shift for real part using Kramers Kronig
   OMEGAMAX=  -1.0    maximum frequency
   DEG_THRESHOLD= 0.2000000E-02 threshold for treating states as degnerate
   RTIME   =   -0.100 relaxation time in fs
  (WPLASMAI=    0.000 imaginary part of plasma frequency in eV, 0.658/RTIME)
   DFIELD  = 0.0000000 0.0000000 0.0000000 field for delta impulse in time
 
 Orbital magnetization related:
   ORBITALMAG=     F  switch on orbital magnetization
   LCHIMAG   =     F  perturbation theory with respect to B field
   DQ        =  0.001000  dq finite difference perturbation B field
   LLRAUG    =     F  two centre corrections for induced B field



--------------------------------------------------------------------------------------------------------


 conjugate gradient relaxation of ions
 charge density and potential will be updated during run
 non-spin polarized calculation
 Variant of blocked Davidson
 Davidson routine will perform the subspace rotation
 perform sub-space diagonalisation
    after iterative eigenvector-optimisation
 modified Broyden-mixing scheme, WC =      100.0
 initial mixing is a Kerker type mixing with AMIX =  0.4000 and BMIX =      1.0000
 Hartree-type preconditioning will be used
 using additional bands            5
 reciprocal scheme for non local part
 use partial core corrections
 calculate Harris-corrections to forces 
   (improved forces if not selfconsistent)
 use gradient corrections 
 use of overlap-Matrix (Vanderbilt PP)
 Gauss-broadening in eV      SIGMA  =   0.10


--------------------------------------------------------------------------------------------------------


  energy-cutoff  :      400.00
  volume of cell :       39.53
      direct lattice vectors                 reciprocal lattice vectors
     5.256241227  0.000000000  0.029581101     0.189487027  0.000000000  0.135575668
     0.000000000  3.034660626  0.000000000     0.000000000  0.329526139  0.000000000
    -1.765924303  0.000000000  2.468140128    -0.002271036  0.000000000  0.403538483

  length of vectors
     5.256324465  3.034660626  3.034831846     0.232993766  0.329526139  0.403544873


 
 k-points in units of 2pi/SCALE and weight: KPOINTS created by Atomic Simulation Env
   0.00000000  0.00000000  0.00000000       0.002
   0.03158117  0.00000000  0.02259594       0.003
   0.06316234  0.00000000  0.04519189       0.003
   0.09474351  0.00000000  0.06778783       0.002
   0.00000000  0.03295261  0.00000000       0.003
   0.03158117  0.03295261  0.02259594       0.007
   0.06316234  0.03295261  0.04519189       0.007
   0.09474351  0.03295261  0.06778783       0.003
   0.00000000  0.06590523  0.00000000       0.003
   0.03158117  0.06590523  0.02259594       0.007
   0.06316234  0.06590523  0.04519189       0.007
   0.09474351  0.06590523  0.06778783       0.003
   0.00000000  0.09885784  0.00000000       0.003
   0.03158117  0.09885784  0.02259594       0.007
   0.06316234  0.09885784  0.04519189       0.007
   0.09474351  0.09885784  0.06778783       0.003
   0.00000000  0.13181046  0.00000000       0.003
   0.03158117  0.13181046  0.02259594       0.007
   0.06316234  0.13181046  0.04519189       0.007
   0.09474351  0.13181046  0.06778783       0.003
   0.00000000  0.16476307  0.00000000       0.002
   0.03158117  0.16476307  0.02259594       0.003
   0.06316234  0.16476307  0.04519189       0.003
   0.09474351  0.16476307  0.06778783       0.002
  -0.00022710  0.00000000  0.04035385       0.003
   0.03135407  0.00000000  0.06294979       0.003
   0.06293524  0.00000000  0.08554574       0.003
   0.09451641  0.00000000  0.10814168       0.003
  -0.06338945  0.00000000 -0.00483804       0.003
  -0.03180827  0.00000000  0.01775790       0.003
  -0.00022710  0.03295261  0.04035385       0.007
   0.03135407  0.03295261  0.06294979       0.007
   0.06293524  0.03295261  0.08554574       0.007
   0.09451641  0.03295261  0.10814168       0.007
  -0.06338945  0.03295261 -0.00483804       0.007
  -0.03180827  0.03295261  0.01775790       0.007
  -0.00022710  0.06590523  0.04035385       0.007
   0.03135407  0.06590523  0.06294979       0.007
   0.06293524  0.06590523  0.08554574       0.007
   0.09451641  0.06590523  0.10814168       0.007
  -0.06338945  0.06590523 -0.00483804       0.007
  -0.03180827  0.06590523  0.01775790       0.007
  -0.00022710  0.09885784  0.04035385       0.007
   0.03135407  0.09885784  0.06294979       0.007
   0.06293524  0.09885784  0.08554574       0.007
   0.09451641  0.09885784  0.10814168       0.007
  -0.06338945  0.09885784 -0.00483804       0.007
  -0.03180827  0.09885784  0.01775790       0.007
  -0.00022710  0.13181046  0.04035385       0.007
   0.03135407  0.13181046  0.06294979       0.007
   0.06293524  0.13181046  0.08554574       0.007
   0.09451641  0.13181046  0.10814168       0.007
  -0.06338945  0.13181046 -0.00483804       0.007
  -0.03180827  0.13181046  0.01775790       0.007
  -0.00022710  0.16476307  0.04035385       0.003
   0.03135407  0.16476307  0.06294979       0.003
   0.06293524  0.16476307  0.08554574       0.003
   0.09451641  0.16476307  0.10814168       0.003
  -0.06338945  0.16476307 -0.00483804       0.003
  -0.03180827  0.16476307  0.01775790       0.003
  -0.00045421  0.00000000  0.08070770       0.003
   0.03112696  0.00000000  0.10330364       0.003
   0.06270814  0.00000000  0.12589959       0.003
   0.09428931  0.00000000  0.14849553       0.003
  -0.06361655  0.00000000  0.03551581       0.003
  -0.03203538  0.00000000  0.05811175       0.003
  -0.00045421  0.03295261  0.08070770       0.007
   0.03112696  0.03295261  0.10330364       0.007
   0.06270814  0.03295261  0.12589959       0.007
   0.09428931  0.03295261  0.14849553       0.007
  -0.06361655  0.03295261  0.03551581       0.007
  -0.03203538  0.03295261  0.05811175       0.007
  -0.00045421  0.06590523  0.08070770       0.007
   0.03112696  0.06590523  0.10330364       0.007
   0.06270814  0.06590523  0.12589959       0.007
   0.09428931  0.06590523  0.14849553       0.007
  -0.06361655  0.06590523  0.03551581       0.007
  -0.03203538  0.06590523  0.05811175       0.007
  -0.00045421  0.09885784  0.08070770       0.007
   0.03112696  0.09885784  0.10330364       0.007
   0.06270814  0.09885784  0.12589959       0.007
   0.09428931  0.09885784  0.14849553       0.007
  -0.06361655  0.09885784  0.03551581       0.007
  -0.03203538  0.09885784  0.05811175       0.007
  -0.00045421  0.13181046  0.08070770       0.007
   0.03112696  0.13181046  0.10330364       0.007
   0.06270814  0.13181046  0.12589959       0.007
   0.09428931  0.13181046  0.14849553       0.007
  -0.06361655  0.13181046  0.03551581       0.007
  -0.03203538  0.13181046  0.05811175       0.007
  -0.00045421  0.16476307  0.08070770       0.003
   0.03112696  0.16476307  0.10330364       0.003
   0.06270814  0.16476307  0.12589959       0.003
   0.09428931  0.16476307  0.14849553       0.003
  -0.06361655  0.16476307  0.03551581       0.003
  -0.03203538  0.16476307  0.05811175       0.003
  -0.00068131  0.00000000  0.12106154       0.003
   0.03089986  0.00000000  0.14365749       0.003
   0.06248103  0.00000000  0.16625343       0.003
   0.09406220  0.00000000  0.18884938       0.003
  -0.06384365  0.00000000  0.07586966       0.003
  -0.03226248  0.00000000  0.09846560       0.003
  -0.00068131  0.03295261  0.12106154       0.007
   0.03089986  0.03295261  0.14365749       0.007
   0.06248103  0.03295261  0.16625343       0.007
   0.09406220  0.03295261  0.18884938       0.007
  -0.06384365  0.03295261  0.07586966       0.007
  -0.03226248  0.03295261  0.09846560       0.007
  -0.00068131  0.06590523  0.12106154       0.007
   0.03089986  0.06590523  0.14365749       0.007
   0.06248103  0.06590523  0.16625343       0.007
   0.09406220  0.06590523  0.18884938       0.007
  -0.06384365  0.06590523  0.07586966       0.007
  -0.03226248  0.06590523  0.09846560       0.007
  -0.00068131  0.09885784  0.12106154       0.007
   0.03089986  0.09885784  0.14365749       0.007
   0.06248103  0.09885784  0.16625343       0.007
   0.09406220  0.09885784  0.18884938       0.007
  -0.06384365  0.09885784  0.07586966       0.007
  -0.03226248  0.09885784  0.09846560       0.007
  -0.00068131  0.13181046  0.12106154       0.007
   0.03089986  0.13181046  0.14365749       0.007
   0.06248103  0.13181046  0.16625343       0.007
   0.09406220  0.13181046  0.18884938       0.007
  -0.06384365  0.13181046  0.07586966       0.007
  -0.03226248  0.13181046  0.09846560       0.007
  -0.00068131  0.16476307  0.12106154       0.003
   0.03089986  0.16476307  0.14365749       0.003
   0.06248103  0.16476307  0.16625343       0.003
   0.09406220  0.16476307  0.18884938       0.003
  -0.06384365  0.16476307  0.07586966       0.003
  -0.03226248  0.16476307  0.09846560       0.003
  -0.00090841  0.00000000  0.16141539       0.003
   0.03067276  0.00000000  0.18401134       0.003
   0.06225393  0.00000000  0.20660728       0.003
   0.09383510  0.00000000  0.22920323       0.003
  -0.06407076  0.00000000  0.11622350       0.003
  -0.03248959  0.00000000  0.13881945       0.003
  -0.00090841  0.03295261  0.16141539       0.007
   0.03067276  0.03295261  0.18401134       0.007
   0.06225393  0.03295261  0.20660728       0.007
   0.09383510  0.03295261  0.22920323       0.007
  -0.06407076  0.03295261  0.11622350       0.007
  -0.03248959  0.03295261  0.13881945       0.007
  -0.00090841  0.06590523  0.16141539       0.007
   0.03067276  0.06590523  0.18401134       0.007
   0.06225393  0.06590523  0.20660728       0.007
   0.09383510  0.06590523  0.22920323       0.007
  -0.06407076  0.06590523  0.11622350       0.007
  -0.03248959  0.06590523  0.13881945       0.007
  -0.00090841  0.09885784  0.16141539       0.007
   0.03067276  0.09885784  0.18401134       0.007
   0.06225393  0.09885784  0.20660728       0.007
   0.09383510  0.09885784  0.22920323       0.007
  -0.06407076  0.09885784  0.11622350       0.007
  -0.03248959  0.09885784  0.13881945       0.007
  -0.00090841  0.13181046  0.16141539       0.007
   0.03067276  0.13181046  0.18401134       0.007
   0.06225393  0.13181046  0.20660728       0.007
   0.09383510  0.13181046  0.22920323       0.007
  -0.06407076  0.13181046  0.11622350       0.007
  -0.03248959  0.13181046  0.13881945       0.007
  -0.00090841  0.16476307  0.16141539       0.003
   0.03067276  0.16476307  0.18401134       0.003
   0.06225393  0.16476307  0.20660728       0.003
   0.09383510  0.16476307  0.22920323       0.003
  -0.06407076  0.16476307  0.11622350       0.003
  -0.03248959  0.16476307  0.13881945       0.003
  -0.00113552  0.00000000  0.20176924       0.002
   0.03044565  0.00000000  0.22436519       0.003
   0.06202682  0.00000000  0.24696113       0.003
   0.09360800  0.00000000  0.26955708       0.002
  -0.00113552  0.03295261  0.20176924       0.003
   0.03044565  0.03295261  0.22436519       0.007
   0.06202682  0.03295261  0.24696113       0.007
   0.09360800  0.03295261  0.26955708       0.003
  -0.00113552  0.06590523  0.20176924       0.003
   0.03044565  0.06590523  0.22436519       0.007
   0.06202682  0.06590523  0.24696113       0.007
   0.09360800  0.06590523  0.26955708       0.003
  -0.00113552  0.09885784  0.20176924       0.003
   0.03044565  0.09885784  0.22436519       0.007
   0.06202682  0.09885784  0.24696113       0.007
   0.09360800  0.09885784  0.26955708       0.003
  -0.00113552  0.13181046  0.20176924       0.003
   0.03044565  0.13181046  0.22436519       0.007
   0.06202682  0.13181046  0.24696113       0.007
   0.09360800  0.13181046  0.26955708       0.003
  -0.00113552  0.16476307  0.20176924       0.002
   0.03044565  0.16476307  0.22436519       0.003
   0.06202682  0.16476307  0.24696113       0.003
   0.09360800  0.16476307  0.26955708       0.002
 
 k-points in reciprocal lattice and weights: KPOINTS created by Atomic Simulation Env
   0.00000000  0.00000000  0.00000000       0.002
   0.16666667  0.00000000 -0.00000000       0.003
   0.33333333  0.00000000 -0.00000000       0.003
   0.50000000  0.00000000 -0.00000000       0.002
   0.00000000  0.10000000  0.00000000       0.003
   0.16666667  0.10000000 -0.00000000       0.007
   0.33333333  0.10000000 -0.00000000       0.007
   0.50000000  0.10000000 -0.00000000       0.003
   0.00000000  0.20000000  0.00000000       0.003
   0.16666667  0.20000000 -0.00000000       0.007
   0.33333333  0.20000000 -0.00000000       0.007
   0.50000000  0.20000000 -0.00000000       0.003
   0.00000000  0.30000000  0.00000000       0.003
   0.16666667  0.30000000 -0.00000000       0.007
   0.33333333  0.30000000 -0.00000000       0.007
   0.50000000  0.30000000 -0.00000000       0.003
   0.00000000  0.40000000  0.00000000       0.003
   0.16666667  0.40000000 -0.00000000       0.007
   0.33333333  0.40000000 -0.00000000       0.007
   0.50000000  0.40000000 -0.00000000       0.003
   0.00000000  0.50000000  0.00000000       0.002
   0.16666667  0.50000000 -0.00000000       0.003
   0.33333333  0.50000000 -0.00000000       0.003
   0.50000000  0.50000000 -0.00000000       0.002
   0.00000000  0.00000000  0.10000000       0.003
   0.16666667  0.00000000  0.10000000       0.003
   0.33333333  0.00000000  0.10000000       0.003
   0.50000000  0.00000000  0.10000000       0.003
  -0.33333333  0.00000000  0.10000000       0.003
  -0.16666667  0.00000000  0.10000000       0.003
   0.00000000  0.10000000  0.10000000       0.007
   0.16666667  0.10000000  0.10000000       0.007
   0.33333333  0.10000000  0.10000000       0.007
   0.50000000  0.10000000  0.10000000       0.007
  -0.33333333  0.10000000  0.10000000       0.007
  -0.16666667  0.10000000  0.10000000       0.007
   0.00000000  0.20000000  0.10000000       0.007
   0.16666667  0.20000000  0.10000000       0.007
   0.33333333  0.20000000  0.10000000       0.007
   0.50000000  0.20000000  0.10000000       0.007
  -0.33333333  0.20000000  0.10000000       0.007
  -0.16666667  0.20000000  0.10000000       0.007
   0.00000000  0.30000000  0.10000000       0.007
   0.16666667  0.30000000  0.10000000       0.007
   0.33333333  0.30000000  0.10000000       0.007
   0.50000000  0.30000000  0.10000000       0.007
  -0.33333333  0.30000000  0.10000000       0.007
  -0.16666667  0.30000000  0.10000000       0.007
   0.00000000  0.40000000  0.10000000       0.007
   0.16666667  0.40000000  0.10000000       0.007
   0.33333333  0.40000000  0.10000000       0.007
   0.50000000  0.40000000  0.10000000       0.007
  -0.33333333  0.40000000  0.10000000       0.007
  -0.16666667  0.40000000  0.10000000       0.007
   0.00000000  0.50000000  0.10000000       0.003
   0.16666667  0.50000000  0.10000000       0.003
   0.33333333  0.50000000  0.10000000       0.003
   0.50000000  0.50000000  0.10000000       0.003
  -0.33333333  0.50000000  0.10000000       0.003
  -0.16666667  0.50000000  0.10000000       0.003
   0.00000000  0.00000000  0.20000000       0.003
   0.16666667  0.00000000  0.20000000       0.003
   0.33333333  0.00000000  0.20000000       0.003
   0.50000000  0.00000000  0.20000000       0.003
  -0.33333333  0.00000000  0.20000000       0.003
  -0.16666667  0.00000000  0.20000000       0.003
   0.00000000  0.10000000  0.20000000       0.007
   0.16666667  0.10000000  0.20000000       0.007
   0.33333333  0.10000000  0.20000000       0.007
   0.50000000  0.10000000  0.20000000       0.007
  -0.33333333  0.10000000  0.20000000       0.007
  -0.16666667  0.10000000  0.20000000       0.007
   0.00000000  0.20000000  0.20000000       0.007
   0.16666667  0.20000000  0.20000000       0.007
   0.33333333  0.20000000  0.20000000       0.007
   0.50000000  0.20000000  0.20000000       0.007
  -0.33333333  0.20000000  0.20000000       0.007
  -0.16666667  0.20000000  0.20000000       0.007
   0.00000000  0.30000000  0.20000000       0.007
   0.16666667  0.30000000  0.20000000       0.007
   0.33333333  0.30000000  0.20000000       0.007
   0.50000000  0.30000000  0.20000000       0.007
  -0.33333333  0.30000000  0.20000000       0.007
  -0.16666667  0.30000000  0.20000000       0.007
   0.00000000  0.40000000  0.20000000       0.007
   0.16666667  0.40000000  0.20000000       0.007
   0.33333333  0.40000000  0.20000000       0.007
   0.50000000  0.40000000  0.20000000       0.007
  -0.33333333  0.40000000  0.20000000       0.007
  -0.16666667  0.40000000  0.20000000       0.007
   0.00000000  0.50000000  0.20000000       0.003
   0.16666667  0.50000000  0.20000000       0.003
   0.33333333  0.50000000  0.20000000       0.003
   0.50000000  0.50000000  0.20000000       0.003
  -0.33333333  0.50000000  0.20000000       0.003
  -0.16666667  0.50000000  0.20000000       0.003
  -0.00000000  0.00000000  0.30000000       0.003
   0.16666667  0.00000000  0.30000000       0.003
   0.33333333  0.00000000  0.30000000       0.003
   0.50000000  0.00000000  0.30000000       0.003
  -0.33333333  0.00000000  0.30000000       0.003
  -0.16666667  0.00000000  0.30000000       0.003
  -0.00000000  0.10000000  0.30000000       0.007
   0.16666667  0.10000000  0.30000000       0.007
   0.33333333  0.10000000  0.30000000       0.007
   0.50000000  0.10000000  0.30000000       0.007
  -0.33333333  0.10000000  0.30000000       0.007
  -0.16666667  0.10000000  0.30000000       0.007
  -0.00000000  0.20000000  0.30000000       0.007
   0.16666667  0.20000000  0.30000000       0.007
   0.33333333  0.20000000  0.30000000       0.007
   0.50000000  0.20000000  0.30000000       0.007
  -0.33333333  0.20000000  0.30000000       0.007
  -0.16666667  0.20000000  0.30000000       0.007
  -0.00000000  0.30000000  0.30000000       0.007
   0.16666667  0.30000000  0.30000000       0.007
   0.33333333  0.30000000  0.30000000       0.007
   0.50000000  0.30000000  0.30000000       0.007
  -0.33333333  0.30000000  0.30000000       0.007
  -0.16666667  0.30000000  0.30000000       0.007
  -0.00000000  0.40000000  0.30000000       0.007
   0.16666667  0.40000000  0.30000000       0.007
   0.33333333  0.40000000  0.30000000       0.007
   0.50000000  0.40000000  0.30000000       0.007
  -0.33333333  0.40000000  0.30000000       0.007
  -0.16666667  0.40000000  0.30000000       0.007
  -0.00000000  0.50000000  0.30000000       0.003
   0.16666667  0.50000000  0.30000000       0.003
   0.33333333  0.50000000  0.30000000       0.003
   0.50000000  0.50000000  0.30000000       0.003
  -0.33333333  0.50000000  0.30000000       0.003
  -0.16666667  0.50000000  0.30000000       0.003
   0.00000000  0.00000000  0.40000000       0.003
   0.16666667  0.00000000  0.40000000       0.003
   0.33333333  0.00000000  0.40000000       0.003
   0.50000000  0.00000000  0.40000000       0.003
  -0.33333333  0.00000000  0.40000000       0.003
  -0.16666667  0.00000000  0.40000000       0.003
   0.00000000  0.10000000  0.40000000       0.007
   0.16666667  0.10000000  0.40000000       0.007
   0.33333333  0.10000000  0.40000000       0.007
   0.50000000  0.10000000  0.40000000       0.007
  -0.33333333  0.10000000  0.40000000       0.007
  -0.16666667  0.10000000  0.40000000       0.007
   0.00000000  0.20000000  0.40000000       0.007
   0.16666667  0.20000000  0.40000000       0.007
   0.33333333  0.20000000  0.40000000       0.007
   0.50000000  0.20000000  0.40000000       0.007
  -0.33333333  0.20000000  0.40000000       0.007
  -0.16666667  0.20000000  0.40000000       0.007
   0.00000000  0.30000000  0.40000000       0.007
   0.16666667  0.30000000  0.40000000       0.007
   0.33333333  0.30000000  0.40000000       0.007
   0.50000000  0.30000000  0.40000000       0.007
  -0.33333333  0.30000000  0.40000000       0.007
  -0.16666667  0.30000000  0.40000000       0.007
   0.00000000  0.40000000  0.40000000       0.007
   0.16666667  0.40000000  0.40000000       0.007
   0.33333333  0.40000000  0.40000000       0.007
   0.50000000  0.40000000  0.40000000       0.007
  -0.33333333  0.40000000  0.40000000       0.007
  -0.16666667  0.40000000  0.40000000       0.007
   0.00000000  0.50000000  0.40000000       0.003
   0.16666667  0.50000000  0.40000000       0.003
   0.33333333  0.50000000  0.40000000       0.003
   0.50000000  0.50000000  0.40000000       0.003
  -0.33333333  0.50000000  0.40000000       0.003
  -0.16666667  0.50000000  0.40000000       0.003
  -0.00000000  0.00000000  0.50000000       0.002
   0.16666667  0.00000000  0.50000000       0.003
   0.33333333  0.00000000  0.50000000       0.003
   0.50000000  0.00000000  0.50000000       0.002
  -0.00000000  0.10000000  0.50000000       0.003
   0.16666667  0.10000000  0.50000000       0.007
   0.33333333  0.10000000  0.50000000       0.007
   0.50000000  0.10000000  0.50000000       0.003
  -0.00000000  0.20000000  0.50000000       0.003
   0.16666667  0.20000000  0.50000000       0.007
   0.33333333  0.20000000  0.50000000       0.007
   0.50000000  0.20000000  0.50000000       0.003
  -0.00000000  0.30000000  0.50000000       0.003
   0.16666667  0.30000000  0.50000000       0.007
   0.33333333  0.30000000  0.50000000       0.007
   0.50000000  0.30000000  0.50000000       0.003
  -0.00000000  0.40000000  0.50000000       0.003
   0.16666667  0.40000000  0.50000000       0.007
   0.33333333  0.40000000  0.50000000       0.007
   0.50000000  0.40000000  0.50000000       0.003
  -0.00000000  0.50000000  0.50000000       0.002
   0.16666667  0.50000000  0.50000000       0.003
   0.33333333  0.50000000  0.50000000       0.003
   0.50000000  0.50000000  0.50000000       0.002
 
 position of ions in fractional coordinates (direct lattice) 
   0.00000000  0.00000000  0.00000000
   0.50000000  0.50000000  1.00000000
   1.00000000  0.50000000  0.50000000
   0.50000000  0.00000000  0.50000000
 
 position of ions in cartesian coordinates  (Angst):
   0.00000000  0.00000000  0.00000000
   0.86219631  1.51733031  2.48293068
   4.37327908  1.51733031  1.26365116
   1.74515846  0.00000000  1.24886061
 


--------------------------------------------------------------------------------------------------------


 k-point  1 :   0.0000 0.0000 0.0000  plane waves:     681
 k-point  2 :   0.1667 0.0000-0.0000  plane waves:     698
 k-point  3 :   0.3333 0.0000-0.0000  plane waves:     706
 k-point  4 :   0.5000 0.0000-0.0000  plane waves:     702
 k-point  5 :   0.0000 0.1000 0.0000  plane waves:     696
 k-point  6 :   0.1667 0.1000-0.0000  plane waves:     704
 k-point  7 :   0.3333 0.1000-0.0000  plane waves:     711
 k-point  8 :   0.5000 0.1000-0.0000  plane waves:     702
 k-point  9 :   0.0000 0.2000 0.0000  plane waves:     712
 k-point 10 :   0.1667 0.2000-0.0000  plane waves:     716
 k-point 11 :   0.3333 0.2000-0.0000  plane waves:     713
 k-point 12 :   0.5000 0.2000-0.0000  plane waves:     710
 k-point 13 :   0.0000 0.3000 0.0000  plane waves:     730
 k-point 14 :   0.1667 0.3000-0.0000  plane waves:     717
 k-point 15 :   0.3333 0.3000-0.0000  plane waves:     721
 k-point 16 :   0.5000 0.3000-0.0000  plane waves:     722
 k-point 17 :   0.0000 0.4000 0.0000  plane waves:     718
 k-point 18 :   0.1667 0.4000-0.0000  plane waves:     721
 k-point 19 :   0.3333 0.4000-0.0000  plane waves:     720
 k-point 20 :   0.5000 0.4000-0.0000  plane waves:     720
 k-point 21 :   0.0000 0.5000 0.0000  plane waves:     726
 k-point 22 :   0.1667 0.5000-0.0000  plane waves:     714
 k-point 23 :   0.3333 0.5000-0.0000  plane waves:     724
 k-point 24 :   0.5000 0.5000-0.0000  plane waves:     736
 k-point 25 :   0.0000 0.0000 0.1000  plane waves:     701
 k-point 26 :   0.1667 0.0000 0.1000  plane waves:     709
 k-point 27 :   0.3333 0.0000 0.1000  plane waves:     704
 k-point 28 :   0.5000 0.0000 0.1000  plane waves:     712
 k-point 29 :  -0.3333 0.0000 0.1000  plane waves:     705
 k-point 30 :  -0.1667 0.0000 0.1000  plane waves:     698
 k-point 31 :   0.0000 0.1000 0.1000  plane waves:     707
 k-point 32 :   0.1667 0.1000 0.1000  plane waves:     710
 k-point 33 :   0.3333 0.1000 0.1000  plane waves:     710
 k-point 34 :   0.5000 0.1000 0.1000  plane waves:     703
 k-point 35 :  -0.3333 0.1000 0.1000  plane waves:     706
 k-point 36 :  -0.1667 0.1000 0.1000  plane waves:     704
 k-point 37 :   0.0000 0.2000 0.1000  plane waves:     716
 k-point 38 :   0.1667 0.2000 0.1000  plane waves:     715
 k-point 39 :   0.3333 0.2000 0.1000  plane waves:     713
 k-point 40 :   0.5000 0.2000 0.1000  plane waves:     714
 k-point 41 :  -0.3333 0.2000 0.1000  plane waves:     714
 k-point 42 :  -0.1667 0.2000 0.1000  plane waves:     716
 k-point 43 :   0.0000 0.3000 0.1000  plane waves:     715
 k-point 44 :   0.1667 0.3000 0.1000  plane waves:     719
 k-point 45 :   0.3333 0.3000 0.1000  plane waves:     722
 k-point 46 :   0.5000 0.3000 0.1000  plane waves:     716
 k-point 47 :  -0.3333 0.3000 0.1000  plane waves:     718
 k-point 48 :  -0.1667 0.3000 0.1000  plane waves:     716
 k-point 49 :   0.0000 0.4000 0.1000  plane waves:     721
 k-point 50 :   0.1667 0.4000 0.1000  plane waves:     725
 k-point 51 :   0.3333 0.4000 0.1000  plane waves:     721
 k-point 52 :   0.5000 0.4000 0.1000  plane waves:     720
 k-point 53 :  -0.3333 0.4000 0.1000  plane waves:     725
 k-point 54 :  -0.1667 0.4000 0.1000  plane waves:     720
 k-point 55 :   0.0000 0.5000 0.1000  plane waves:     722
 k-point 56 :   0.1667 0.5000 0.1000  plane waves:     722
 k-point 57 :   0.3333 0.5000 0.1000  plane waves:     722
 k-point 58 :   0.5000 0.5000 0.1000  plane waves:     728
 k-point 59 :  -0.3333 0.5000 0.1000  plane waves:     726
 k-point 60 :  -0.1667 0.5000 0.1000  plane waves:     718
 k-point 61 :   0.0000 0.0000 0.2000  plane waves:     714
 k-point 62 :   0.1667 0.0000 0.2000  plane waves:     712
 k-point 63 :   0.3333 0.0000 0.2000  plane waves:     710
 k-point 64 :   0.5000 0.0000 0.2000  plane waves:     717
 k-point 65 :  -0.3333 0.0000 0.2000  plane waves:     718
 k-point 66 :  -0.1667 0.0000 0.2000  plane waves:     711
 k-point 67 :   0.0000 0.1000 0.2000  plane waves:     713
 k-point 68 :   0.1667 0.1000 0.2000  plane waves:     713
 k-point 69 :   0.3333 0.1000 0.2000  plane waves:     713
 k-point 70 :   0.5000 0.1000 0.2000  plane waves:     715
 k-point 71 :  -0.3333 0.1000 0.2000  plane waves:     714
 k-point 72 :  -0.1667 0.1000 0.2000  plane waves:     713
 k-point 73 :   0.0000 0.2000 0.2000  plane waves:     712
 k-point 74 :   0.1667 0.2000 0.2000  plane waves:     714
 k-point 75 :   0.3333 0.2000 0.2000  plane waves:     714
 k-point 76 :   0.5000 0.2000 0.2000  plane waves:     706
 k-point 77 :  -0.3333 0.2000 0.2000  plane waves:     717
 k-point 78 :  -0.1667 0.2000 0.2000  plane waves:     721
 k-point 79 :   0.0000 0.3000 0.2000  plane waves:     719
 k-point 80 :   0.1667 0.3000 0.2000  plane waves:     720
 k-point 81 :   0.3333 0.3000 0.2000  plane waves:     717
 k-point 82 :   0.5000 0.3000 0.2000  plane waves:     721
 k-point 83 :  -0.3333 0.3000 0.2000  plane waves:     720
 k-point 84 :  -0.1667 0.3000 0.2000  plane waves:     720
 k-point 85 :   0.0000 0.4000 0.2000  plane waves:     720
 k-point 86 :   0.1667 0.4000 0.2000  plane waves:     726
 k-point 87 :   0.3333 0.4000 0.2000  plane waves:     724
 k-point 88 :   0.5000 0.4000 0.2000  plane waves:     726
 k-point 89 :  -0.3333 0.4000 0.2000  plane waves:     718
 k-point 90 :  -0.1667 0.4000 0.2000  plane waves:     712
 k-point 91 :   0.0000 0.5000 0.2000  plane waves:     722
 k-point 92 :   0.1667 0.5000 0.2000  plane waves:     732
 k-point 93 :   0.3333 0.5000 0.2000  plane waves:     728
 k-point 94 :   0.5000 0.5000 0.2000  plane waves:     724
 k-point 95 :  -0.3333 0.5000 0.2000  plane waves:     722
 k-point 96 :  -0.1667 0.5000 0.2000  plane waves:     712
 k-point 97 :  -0.0000 0.0000 0.3000  plane waves:     715
 k-point 98 :   0.1667 0.0000 0.3000  plane waves:     718
 k-point 99 :   0.3333 0.0000 0.3000  plane waves:     720
 k-point ** :   0.5000 0.0000 0.3000  plane waves:     715
 k-point ** :  -0.3333 0.0000 0.3000  plane waves:     723
 k-point ** :  -0.1667 0.0000 0.3000  plane waves:     718
 k-point ** :  -0.0000 0.1000 0.3000  plane waves:     718
 k-point ** :   0.1667 0.1000 0.3000  plane waves:     718
 k-point ** :   0.3333 0.1000 0.3000  plane waves:     719
 k-point ** :   0.5000 0.1000 0.3000  plane waves:     718
 k-point ** :  -0.3333 0.1000 0.3000  plane waves:     720
 k-point ** :  -0.1667 0.1000 0.3000  plane waves:     722
 k-point ** :  -0.0000 0.2000 0.3000  plane waves:     721
 k-point ** :   0.1667 0.2000 0.3000  plane waves:     717
 k-point ** :   0.3333 0.2000 0.3000  plane waves:     720
 k-point ** :   0.5000 0.2000 0.3000  plane waves:     719
 k-point ** :  -0.3333 0.2000 0.3000  plane waves:     720
 k-point ** :  -0.1667 0.2000 0.3000  plane waves:     720
 k-point ** :  -0.0000 0.3000 0.3000  plane waves:     719
 k-point ** :   0.1667 0.3000 0.3000  plane waves:     723
 k-point ** :   0.3333 0.3000 0.3000  plane waves:     714
 k-point ** :   0.5000 0.3000 0.3000  plane waves:     716
 k-point ** :  -0.3333 0.3000 0.3000  plane waves:     718
 k-point ** :  -0.1667 0.3000 0.3000  plane waves:     723
 k-point ** :  -0.0000 0.4000 0.3000  plane waves:     719
 k-point ** :   0.1667 0.4000 0.3000  plane waves:     728
 k-point ** :   0.3333 0.4000 0.3000  plane waves:     724
 k-point ** :   0.5000 0.4000 0.3000  plane waves:     716
 k-point ** :  -0.3333 0.4000 0.3000  plane waves:     714
 k-point ** :  -0.1667 0.4000 0.3000  plane waves:     718
 k-point ** :  -0.0000 0.5000 0.3000  plane waves:     724
 k-point ** :   0.1667 0.5000 0.3000  plane waves:     738
 k-point ** :   0.3333 0.5000 0.3000  plane waves:     730
 k-point ** :   0.5000 0.5000 0.3000  plane waves:     716
 k-point ** :  -0.3333 0.5000 0.3000  plane waves:     710
 k-point ** :  -0.1667 0.5000 0.3000  plane waves:     716
 k-point ** :   0.0000 0.0000 0.4000  plane waves:     717
 k-point ** :   0.1667 0.0000 0.4000  plane waves:     716
 k-point ** :   0.3333 0.0000 0.4000  plane waves:     719
 k-point ** :   0.5000 0.0000 0.4000  plane waves:     716
 k-point ** :  -0.3333 0.0000 0.4000  plane waves:     723
 k-point ** :  -0.1667 0.0000 0.4000  plane waves:     723
 k-point ** :   0.0000 0.1000 0.4000  plane waves:     720
 k-point ** :   0.1667 0.1000 0.4000  plane waves:     721
 k-point ** :   0.3333 0.1000 0.4000  plane waves:     725
 k-point ** :   0.5000 0.1000 0.4000  plane waves:     721
 k-point ** :  -0.3333 0.1000 0.4000  plane waves:     720
 k-point ** :  -0.1667 0.1000 0.4000  plane waves:     725
 k-point ** :   0.0000 0.2000 0.4000  plane waves:     730
 k-point ** :   0.1667 0.2000 0.4000  plane waves:     725
 k-point ** :   0.3333 0.2000 0.4000  plane waves:     723
 k-point ** :   0.5000 0.2000 0.4000  plane waves:     718
 k-point ** :  -0.3333 0.2000 0.4000  plane waves:     719
 k-point ** :  -0.1667 0.2000 0.4000  plane waves:     720
 k-point ** :   0.0000 0.3000 0.4000  plane waves:     728
 k-point ** :   0.1667 0.3000 0.4000  plane waves:     728
 k-point ** :   0.3333 0.3000 0.4000  plane waves:     719
 k-point ** :   0.5000 0.3000 0.4000  plane waves:     719
 k-point ** :  -0.3333 0.3000 0.4000  plane waves:     717
 k-point ** :  -0.1667 0.3000 0.4000  plane waves:     718
 k-point ** :   0.0000 0.4000 0.4000  plane waves:     725
 k-point ** :   0.1667 0.4000 0.4000  plane waves:     728
 k-point ** :   0.3333 0.4000 0.4000  plane waves:     717
 k-point ** :   0.5000 0.4000 0.4000  plane waves:     713
 k-point ** :  -0.3333 0.4000 0.4000  plane waves:     716
 k-point ** :  -0.1667 0.4000 0.4000  plane waves:     721
 k-point ** :   0.0000 0.5000 0.4000  plane waves:     734
 k-point ** :   0.1667 0.5000 0.4000  plane waves:     732
 k-point ** :   0.3333 0.5000 0.4000  plane waves:     726
 k-point ** :   0.5000 0.5000 0.4000  plane waves:     720
 k-point ** :  -0.3333 0.5000 0.4000  plane waves:     716
 k-point ** :  -0.1667 0.5000 0.4000  plane waves:     724
 k-point ** :  -0.0000 0.0000 0.5000  plane waves:     736
 k-point ** :   0.1667 0.0000 0.5000  plane waves:     724
 k-point ** :   0.3333 0.0000 0.5000  plane waves:     714
 k-point ** :   0.5000 0.0000 0.5000  plane waves:     726
 k-point ** :  -0.0000 0.1000 0.5000  plane waves:     716
 k-point ** :   0.1667 0.1000 0.5000  plane waves:     724
 k-point ** :   0.3333 0.1000 0.5000  plane waves:     720
 k-point ** :   0.5000 0.1000 0.5000  plane waves:     714
 k-point ** :  -0.0000 0.2000 0.5000  plane waves:     724
 k-point ** :   0.1667 0.2000 0.5000  plane waves:     726
 k-point ** :   0.3333 0.2000 0.5000  plane waves:     722
 k-point ** :   0.5000 0.2000 0.5000  plane waves:     714
 k-point ** :  -0.0000 0.3000 0.5000  plane waves:     736
 k-point ** :   0.1667 0.3000 0.5000  plane waves:     724
 k-point ** :   0.3333 0.3000 0.5000  plane waves:     714
 k-point ** :   0.5000 0.3000 0.5000  plane waves:     714
 k-point ** :  -0.0000 0.4000 0.5000  plane waves:     732
 k-point ** :   0.1667 0.4000 0.5000  plane waves:     724
 k-point ** :   0.3333 0.4000 0.5000  plane waves:     722
 k-point ** :   0.5000 0.4000 0.5000  plane waves:     714
 k-point ** :  -0.0000 0.5000 0.5000  plane waves:     720
 k-point ** :   0.1667 0.5000 0.5000  plane waves:     720
 k-point ** :   0.3333 0.5000 0.5000  plane waves:     716
 k-point ** :   0.5000 0.5000 0.5000  plane waves:     684

 maximum and minimum number of plane-waves per node :       196      148

 maximum number of plane-waves:       738
 maximum index in each direction: 
   IXMAX=    8   IYMAX=    4   IZMAX=    4
   IXMIN=   -9   IYMIN=   -5   IZMIN=   -5


 parallel 3D FFT for wavefunctions:
    minimum data exchange during FFTs selected (reduces bandwidth)
 parallel 3D FFT for charge:
    minimum data exchange during FFTs selected (reduces bandwidth)


 total amount of memory used by VASP MPI-rank0    44405. kBytes
=======================================================================

   base      :      30000. kBytes
   nonl-proj :      10629. kBytes
   fftplans  :        192. kBytes
   grid      :        313. kBytes
   one-center:         15. kBytes
   wavefun   :       3256. kBytes
 
     INWAV:  cpu time    0.0000: real time    0.0000
 Broyden mixing: mesh for mixing (old mesh)
   NGX = 17   NGY =  9   NGZ =  9
  (NGX  = 56   NGY  = 32   NGZ  = 32)
  gives a total of   1377 points

 initial charge density was supplied:
 charge density of overlapping atoms calculated
 number of electron      30.0000000 magnetization 
 keeping initial charge density in first step


--------------------------------------------------------------------------------------------------------


 Maximum index for augmentation-charges          625 (set IRDMAX)


--------------------------------------------------------------------------------------------------------


 First call to EWALD:  gamma=   0.520
 Maximum number of real-space cells 2x 3x 4
 Maximum number of reciprocal cells 4x 3x 3

    FEWALD:  cpu time    0.0018: real time    0.0018


--------------------------------------- Iteration      1(   1)  ---------------------------------------


    POTLOK:  cpu time    0.0121: real time    0.0136
    SETDIJ:  cpu time    0.0041: real time    0.0041
     EDDAV:  cpu time    2.4563: real time    2.4780
       DOS:  cpu time    0.0052: real time    0.0052
    --------------------------------------------
      LOOP:  cpu time    2.4778: real time    2.5010

 eigenvalue-minimisations  :  7768
 total energy-change (2. order) : 0.2224937E+03  (-0.1227096E+04)
 number of electron      30.0000000 magnetization 
 augmentation part       30.0000000 magnetization 

 Free energy of the ion-electron system (eV)
  ---------------------------------------------------
  alpha Z        PSCENC =       106.59363258
  Ewald energy   TEWEN  =     -2194.67412473
  -Hartree energ DENC   =      -484.38799309
  -exchange      EXHF   =         0.00000000
  -V(xc)+E(xc)   XCENC  =        87.54977597
  PAW double counting   =      2135.12151303    -2244.77877011
  entropy T*S    EENTRO =        -0.00970269
  eigenvalues    EBANDS =       325.83753957
  atomic energy  EATOM  =      2491.24186027
  Solvation  Ediel_sol  =         0.00000000
  ---------------------------------------------------
  free energy    TOTEN  =       222.49373081 eV

  energy without entropy =      222.50343350  energy(sigma->0) =      222.49858216


--------------------------------------------------------------------------------------------------------




--------------------------------------- Iteration      1(   2)  ---------------------------------------


     EDDAV:  cpu time    2.4549: real time    2.4680
       DOS:  cpu time    0.0054: real time    0.0054
    --------------------------------------------
      LOOP:  cpu time    2.4603: real time    2.4734

 eigenvalue-minimisations  :  7924
 total energy-change (2. order) :-0.2254889E+03  (-0.2108862E+03)
 number of electron      30.0000000 magnetization 
 augmentation part       30.0000000 magnetization 

 Free energy of the ion-electron system (eV)
  ---------------------------------------------------
  alpha Z        PSCENC =       106.59363258
  Ewald energy   TEWEN  =     -2194.67412473
  -Hartree energ DENC   =      -484.38799309
  -exchange      EXHF   =         0.00000000
  -V(xc)+E(xc)   XCENC  =        87.54977597
  PAW double counting   =      2135.12151303    -2244.77877011
  entropy T*S    EENTRO =        -0.02883499
  eigenvalues    EBANDS =       100.36773719
  atomic energy  EATOM  =      2491.24186027
  Solvation  Ediel_sol  =         0.00000000
  ---------------------------------------------------
  free energy    TOTEN  =        -2.99520386 eV

  energy without entropy =       -2.96636887  energy(sigma->0) =       -2.98078637


--------------------------------------------------------------------------------------------------------




--------------------------------------- Iteration      1(   3)  ---------------------------------------


     EDDAV:  cpu time    2.6765: real time    2.6908
       DOS:  cpu time    0.0059: real time    0.0059
    --------------------------------------------
      LOOP:  cpu time    2.6823: real time    2.6967

 eigenvalue-minimisations  :  8904
 total energy-change (2. order) :-0.2555247E+02  (-0.2423931E+02)
 number of electron      30.0000000 magnetization 
 augmentation part       30.0000000 magnetization 

 Free energy of the ion-electron system (eV)
  ---------------------------------------------------
  alpha Z        PSCENC =       106.59363258
  Ewald energy   TEWEN  =     -2194.67412473
  -Hartree energ DENC   =      -484.38799309
  -exchange      EXHF   =         0.00000000
  -V(xc)+E(xc)   XCENC  =        87.54977597
  PAW double counting   =      2135.12151303    -2244.77877011
  entropy T*S    EENTRO =        -0.08085985
  eigenvalues    EBANDS =        74.86728778
  atomic energy  EATOM  =      2491.24186027
  Solvation  Ediel_sol  =         0.00000000
  ---------------------------------------------------
  free energy    TOTEN  =       -28.54767813 eV

  energy without entropy =      -28.46681829  energy(sigma->0) =      -28.50724821


--------------------------------------------------------------------------------------------------------




--------------------------------------- Iteration      1(   4)  ---------------------------------------


     EDDAV:  cpu time    2.6280: real time    2.6421
       DOS:  cpu time    0.0061: real time    0.0061
    --------------------------------------------
      LOOP:  cpu time    2.6341: real time    2.6483

 eigenvalue-minimisations  :  8704
 total energy-change (2. order) :-0.8951851E+00  (-0.8885221E+00)
 number of electron      30.0000000 magnetization 
 augmentation part       30.0000000 magnetization 

 Free energy of the ion-electron system (eV)
  ---------------------------------------------------
  alpha Z        PSCENC =       106.59363258
  Ewald energy   TEWEN  =     -2194.67412473
  -Hartree energ DENC   =      -484.38799309
  -exchange      EXHF   =         0.00000000
  -V(xc)+E(xc)   XCENC  =        87.54977597
  PAW double counting   =      2135.12151303    -2244.77877011
  entropy T*S    EENTRO =        -0.08111571
  eigenvalues    EBANDS =        73.97235858
  atomic energy  EATOM  =      2491.24186027
  Solvation  Ediel_sol  =         0.00000000
  ---------------------------------------------------
  free energy    TOTEN  =       -29.44286319 eV

  energy without entropy =      -29.36174749  energy(sigma->0) =      -29.40230534


--------------------------------------------------------------------------------------------------------




--------------------------------------- Iteration      1(   5)  ---------------------------------------


     EDDAV:  cpu time    2.8936: real time    2.9091
       DOS:  cpu time    0.0061: real time    0.0061
    CHARGE:  cpu time    0.1598: real time    0.1604
    MIXING:  cpu time    0.0003: real time    0.0003
    --------------------------------------------
      LOOP:  cpu time    3.0598: real time    3.0759

 eigenvalue-minimisations  :  9688
 total energy-change (2. order) :-0.3062701E-01  (-0.3061092E-01)
 number of electron      29.9999997 magnetization 
 augmentation part       10.9486948 magnetization 

 Broyden mixing:
  rms(total) = 0.16988E+01    rms(broyden)= 0.16967E+01
  rms(prec ) = 0.35535E+01
  weight for this iteration     100.00

 Free energy of the ion-electron system (eV)
  ---------------------------------------------------
  alpha Z        PSCENC =       106.59363258
  Ewald energy   TEWEN  =     -2194.67412473
  -Hartree energ DENC   =      -484.38799309
  -exchange      EXHF   =         0.00000000
  -V(xc)+E(xc)   XCENC  =        87.54977597
  PAW double counting   =      2135.12151303    -2244.77877011
  entropy T*S    EENTRO =        -0.08104812
  eigenvalues    EBANDS =        73.94166398
  atomic energy  EATOM  =      2491.24186027
  Solvation  Ediel_sol  =         0.00000000
  ---------------------------------------------------
  free energy    TOTEN  =       -29.47349020 eV

  energy without entropy =      -29.39244208  energy(sigma->0) =      -29.43296614


--------------------------------------------------------------------------------------------------------




--------------------------------------- Iteration      1(   6)  ---------------------------------------


    POTLOK:  cpu time    0.0061: real time    0.0063
    SETDIJ:  cpu time    0.0040: real time    0.0040
     EDDAV:  cpu time    3.5143: real time    3.5323
       DOS:  cpu time    0.0055: real time    0.0055
[...]
     10       7.8541      2.00000
     11       8.9585      2.00000
     12       8.9585      2.00000
     13       9.2705      1.99718
     14       9.2705      1.99718
     15       9.3766      1.86278
     16       9.3766      1.86278
     17      10.3567      0.00000
     18      10.3567      0.00000
     19      17.3808      0.00000
     20      17.3808      0.00000

 k-point   181 :      -0.0000    0.3000    0.5000
  band No.  band energies     occupation 
      1     -10.3730      2.00000
      2     -10.3726      2.00000
      3       1.5039      2.00000
      4       1.5045      2.00000
      5       2.7971      2.00000
      6       2.7975      2.00000
      7       3.3614      2.00000
      8       3.3628      2.00000
      9       8.6007      2.00000
     10       8.6015      2.00000
     11       8.7717      2.00000
     12       8.7718      2.00000
     13       9.2635      1.99797
     14       9.2637      1.99795
     15       9.8565      0.00000
     16       9.8568      0.00000
     17      10.5368      0.00000
     18      10.5370      0.00000
     19      18.2937      0.00000
     20      18.2945      0.00000

 k-point   182 :       0.1667    0.3000    0.5000
  band No.  band energies     occupation 
      1     -10.4091      2.00000
      2     -10.4088      2.00000
      3       1.6048      2.00000
      4       1.6053      2.00000
      5       2.8535      2.00000
      6       2.8536      2.00000
      7       3.6012      2.00000
      8       3.6026      2.00000
      9       8.0923      2.00000
     10       8.0928      2.00000
     11       9.0500      2.00000
     12       9.0502      2.00000
     13       9.2710      1.99712
     14       9.2715      1.99705
     15       9.8288      0.00000
     16       9.8292      0.00000
     17      10.2449      0.00000
     18      10.2450      0.00000
     19      18.0313      0.00000
     20      18.0315      0.00000

 k-point   183 :       0.3333    0.3000    0.5000
  band No.  band energies     occupation 
      1     -10.4802      2.00000
      2     -10.4801      2.00000
      3       1.7042      2.00000
      4       1.7043      2.00000
      5       3.2848      2.00000
      6       3.2854      2.00000
      7       3.9546      2.00000
      8       3.9561      2.00000
      9       7.5019      2.00000
     10       7.5023      2.00000
     11       9.1342      2.00000
     12       9.1342      2.00000
     13       9.2954      1.99158
     14       9.2965      1.99120
     15       9.5403      0.40694
     16       9.5410      0.40134
     17       9.8289      0.00000
     18       9.8289      0.00000
     19      17.5496      0.00000
     20      17.5496      0.00000

 k-point   184 :       0.5000    0.3000    0.5000
  band No.  band energies     occupation 
      1     -10.5153      2.00000
      2     -10.5153      2.00000
      3       1.7171      2.00000
      4       1.7171      2.00000
      5       3.8478      2.00000
      6       3.8478      2.00000
      7       3.8728      2.00000
      8       3.8728      2.00000
      9       7.2739      2.00000
     10       7.2739      2.00000
     11       8.9584      2.00000
     12       8.9584      2.00000
     13       9.3101      1.98477
     14       9.3101      1.98477
     15       9.3122      1.98349
     16       9.3122      1.98349
     17       9.7980      0.00001
     18       9.7980      0.00001
     19      17.3396      0.00000
     20      17.3396      0.00000

 k-point   185 :      -0.0000    0.4000    0.5000
  band No.  band energies     occupation 
      1     -10.3409      2.00000
      2     -10.3408      2.00000
      3       2.1261      2.00000
      4       2.1267      2.00000
      5       2.6106      2.00000
      6       2.6108      2.00000
      7       3.2152      2.00000
      8       3.2162      2.00000
      9       8.5908      2.00000
     10       8.5913      2.00000
     11       8.6607      2.00000
     12       8.6608      2.00000
     13       9.3013      1.98926
     14       9.3014      1.98922
     15       9.4111      1.68178
     16       9.4115      1.67941
     17      10.1890      0.00000
     18      10.1891      0.00000
     19      19.3035      0.00000
     20      19.3047      0.00000

 k-point   186 :       0.1667    0.4000    0.5000
  band No.  band energies     occupation 
      1     -10.3759      2.00000
      2     -10.3757      2.00000
      3       1.9765      2.00000
      4       1.9766      2.00000
      5       2.9043      2.00000
      6       2.9047      2.00000
      7       3.5211      2.00000
      8       3.5223      2.00000
      9       7.9340      2.00000
     10       7.9342      2.00000
     11       9.0417      2.00000
     12       9.0421      2.00000
     13       9.3021      1.98890
     14       9.3023      1.98881
     15       9.3858      1.82502
     16       9.3863      1.82269
     17       9.9664      0.00000
     18       9.9665      0.00000
     19      18.3930      0.00000
     20      18.3934      0.00000

 k-point   187 :       0.3333    0.4000    0.5000
  band No.  band energies     occupation 
      1     -10.4450      2.00000
      2     -10.4449      2.00000
      3       1.7889      2.00000
      4       1.7889      2.00000
      5       3.5964      2.00000
      6       3.5974      2.00000
      7       4.0752      2.00000
      8       4.0766      2.00000
      9       7.1507      2.00000
     10       7.1510      2.00000
     11       9.0980      2.00000
     12       9.0986      2.00000
     13       9.2875      1.99397
     14       9.2886      1.99367
     15       9.3050      1.98753
     16       9.3056      1.98722
     17       9.5607      0.26375
     18       9.5607      0.26363
     19      17.3949      0.00000
     20      17.3950      0.00000

 k-point   188 :       0.5000    0.4000    0.5000
  band No.  band energies     occupation 
      1     -10.4785      2.00000
      2     -10.4785      2.00000
      3       1.7197      2.00000
      4       1.7197      2.00000
      5       4.1930      2.00000
      6       4.1930      2.00000
      7       4.2050      2.00000
      8       4.2050      2.00000
      9       6.7585      2.00000
     10       6.7585      2.00000
     11       8.8103      2.00000
     12       8.8103      2.00000
     13       9.2991      1.99019
     14       9.2991      1.99019
     15       9.3113      1.98406
     16       9.3113      1.98406
     17       9.4744      1.08185
     18       9.4744      1.08185
     19      17.0214      0.00000
     20      17.0214      0.00000

 k-point   189 :      -0.0000    0.5000    0.5000
  band No.  band energies     occupation 
      1     -10.3280      2.00000
      2     -10.3280      2.00000
      3       2.5391      2.00000
      4       2.5391      2.00000
      5       2.5400      2.00000
      6       2.5400      2.00000
      7       2.9905      2.00000
      8       2.9905      2.00000
      9       8.6268      2.00000
     10       8.6268      2.00000
     11       8.6278      2.00000
     12       8.6278      2.00000
     13       9.2167      1.99982
     14       9.2167      1.99982
     15       9.3084      1.98574
     16       9.3084      1.98574
     17      10.0467      0.00000
     18      10.0467      0.00000
     19      19.1854      0.00000
     20      19.1854      0.00000

 k-point   190 :       0.1667    0.5000    0.5000
  band No.  band energies     occupation 
      1     -10.3629      2.00000
      2     -10.3629      2.00000
      3       2.0741      2.00000
      4       2.0741      2.00000
      5       3.1856      2.00000
      6       3.1856      2.00000
      7       3.2798      2.00000
      8       3.2798      2.00000
      9       7.8926      2.00000
     10       7.8926      2.00000
     11       9.0719      2.00000
     12       9.0719      2.00000
     13       9.1828      1.99998
     14       9.1828      1.99998
     15       9.3081      1.98592
     16       9.3081      1.98592
     17       9.8540      0.00000
     18       9.8540      0.00000
     19      18.3804      0.00000
     20      18.3804      0.00000

 k-point   191 :       0.3333    0.5000    0.5000
  band No.  band energies     occupation 
      1     -10.4310      2.00000
      2     -10.4310      2.00000
      3       1.8015      2.00000
      4       1.8015      2.00000
      5       3.9258      2.00000
      6       3.9258      2.00000
      7       3.9502      2.00000
      8       3.9502      2.00000
      9       7.0238      2.00000
     10       7.0238      2.00000
     11       8.9782      2.00000
     12       8.9782      2.00000
     13       9.2619      1.99811
     14       9.2619      1.99811
     15       9.3076      1.98617
     16       9.3076      1.98617
     17       9.4846      0.96709
     18       9.4846      0.96709
     19      17.2766      0.00000
     20      17.2766      0.00000

 k-point   192 :       0.5000    0.5000    0.5000
  band No.  band energies     occupation 
      1     -10.4629      2.00000
      2     -10.4629      2.00000
      3       1.7127      2.00000
      4       1.7127      2.00000
      5       4.3622      2.00000
      6       4.3622      2.00000
      7       4.3642      2.00000
      8       4.3642      2.00000
      9       6.5294      2.00000
     10       6.5294      2.00000
     11       8.7027      2.00000
     12       8.7027      2.00000
     13       9.3070      1.98651
     14       9.3070      1.98651
     15       9.3078      1.98605
     16       9.3078      1.98605
     17       9.3829      1.83785
     18       9.3829      1.83785
     19      16.8557      0.00000
     20      16.8557      0.00000


--------------------------------------------------------------------------------------------------------


 soft charge-density along one line, spin component           1
         0         1         2         3         4         5         6         7         8         9
 total charge-density along one line
 
 pseudopotential strength for first ion, spin component:           1
 -0.286   0.114   0.000   0.000   0.000  -0.941   0.110   0.000
  0.114  -0.365   0.000   0.000   0.000   0.110  -1.016   0.000
  0.000   0.000  -0.206  -0.001  -0.001   0.000   0.000  -0.864
  0.000   0.000  -0.001  -0.368  -0.113   0.000   0.000  -0.001
  0.000   0.000  -0.001  -0.113  -0.283   0.000   0.000  -0.001
 -0.941   0.110   0.000   0.000   0.000  -1.535   0.106   0.000
  0.110  -1.016   0.000   0.000   0.000   0.106  -1.608   0.000
  0.000   0.000  -0.864  -0.001  -0.001   0.000   0.000  -1.461
  0.000   0.000  -0.001  -1.019  -0.108   0.000   0.000  -0.001
  0.000   0.000  -0.001  -0.108  -0.937   0.000   0.000  -0.001
  0.000  -0.000   0.000  -0.000   0.000   0.000  -0.000   0.000
  0.000  -0.000   0.000  -0.000   0.000   0.000  -0.000   0.000
  0.000   0.000  -0.000  -0.000  -0.000   0.000   0.000  -0.000
 -0.000   0.000   0.000   0.000  -0.000  -0.000   0.000   0.000
  0.000  -0.000  -0.000   0.000   0.000   0.000  -0.000  -0.000
  0.000   0.000  -0.000  -0.000  -0.000   0.000   0.000  -0.000
 -0.000   0.000   0.000   0.000  -0.000  -0.000   0.000   0.000
  0.000  -0.000  -0.000   0.000   0.000   0.000  -0.000  -0.000
 total augmentation occupancy for first ion, spin component:           1
  4.672  -0.016   0.000  -0.000  -0.000  -3.050   0.988   0.000  -0.000  -0.000  -0.000   0.000   0.000   0.000   0.000   0.000
 -0.016   4.684  -0.000   0.000   0.000   0.988  -3.725  -0.000  -0.000   0.000   0.000   0.000   0.000   0.000   0.000  -0.000
 -0.000   0.000   4.666  -0.001   0.002   0.000  -0.000  -2.346  -0.013  -0.010  -0.001   0.000   0.000   0.000   0.000   0.000
 -0.000   0.000  -0.001   4.682   0.016   0.000   0.000  -0.013  -3.744  -0.980  -0.000  -0.000   0.000   0.000   0.000   0.000
  0.000   0.000   0.002   0.016   4.683  -0.000  -0.000  -0.010  -0.979  -3.034   0.001   0.000   0.000   0.000   0.000   0.000
 -3.050   0.988  -0.000  -0.000  -0.000   3.060  -1.478   0.000   0.000   0.000   0.000   0.000   0.000  -0.000  -0.000   0.000
  0.988  -3.725   0.000   0.000  -0.000  -1.478   4.069  -0.000  -0.000   0.000   0.000   0.000   0.000   0.000  -0.000   0.000
  0.000   0.000  -2.346  -0.013  -0.010   0.000   0.000   2.005   0.020   0.015   0.001  -0.000   0.000   0.000   0.000   0.000
 -0.000   0.000  -0.013  -3.744  -0.979   0.000  -0.000   0.020   4.099   1.465  -0.000   0.000   0.000  -0.000   0.000   0.000
  0.000  -0.000  -0.010  -0.980  -3.034  -0.000   0.000   0.015   1.465   3.030  -0.001  -0.000   0.000   0.000   0.000  -0.000
  0.000   0.000  -0.001  -0.000   0.001  -0.000   0.000   0.001  -0.000  -0.001   2.243  -0.492   0.000   0.000   0.000   0.000
  0.000   0.000   0.000  -0.000   0.000   0.000   0.000  -0.000   0.000  -0.000  -0.492   0.123   0.000   0.000   0.000   0.000
  0.000   0.000   0.000   0.000   0.000   0.000   0.000   0.000   0.000   0.000   0.000   0.000   0.303   0.000   0.000  -0.055
  0.000   0.000   0.000   0.000   0.000  -0.000   0.000   0.000  -0.000   0.000   0.000   0.000   0.000   0.303   0.000   0.000
  0.000   0.000   0.000   0.000   0.000  -0.000  -0.000   0.000   0.000   0.000   0.000   0.000  -0.000   0.000   0.303   0.000
  0.000  -0.000   0.000   0.000   0.000   0.000   0.000   0.000   0.000  -0.000   0.000   0.000  -0.055   0.000  -0.000   0.011
  0.000   0.000   0.000   0.000   0.000   0.000   0.000   0.000   0.000   0.000   0.000   0.000  -0.000  -0.055   0.000  -0.000
  0.000   0.000   0.000  -0.000   0.000   0.000   0.000  -0.000  -0.000   0.000   0.000   0.000  -0.000   0.000  -0.055  -0.000


------------------------ aborting loop because EDIFF is reached ----------------------------------------


    CHARGE:  cpu time    0.1483: real time    0.1489
    FORLOC:  cpu time    0.0003: real time    0.0004
    FORNL :  cpu time    0.1914: real time    0.1921
    STRESS:  cpu time    0.6871: real time    0.6898
    FORCOR:  cpu time    0.0062: real time    0.0062
    FORHAR:  cpu time    0.0016: real time    0.0016
    MIXING:  cpu time    0.0005: real time    0.0005
    OFIELD:  cpu time    0.0000: real time    0.0000

  FORCE on cell =-STRESS in cart. coord.  units (eV):
  Direction    XX          YY          ZZ          XY          YZ          ZX
  --------------------------------------------------------------------------------------
  Alpha Z   122.74281   122.74281   122.74281
  Ewald    -766.81687  -766.79625  -766.72829    -0.00000     0.00000    -0.03649
  Hartree   144.39645   144.37496   144.39810     0.00000    -0.00000    -0.00105
  E(xc)    -151.89685  -151.89719  -151.89490    -0.00000     0.00000     0.00010
  Local     -25.89712   -25.82236   -25.85085     0.00000     0.00000     0.00312
  n-local   -67.26754   -67.26952   -67.24955    -0.69633     1.02391    -0.01567
  augment   328.23955   328.24419   328.17850    -0.00000     0.00000     0.01658
  Kinetic   416.40812   416.35211   416.34524     5.15705    -7.87691     0.01288
  Fock        0.00000     0.00000     0.00000     0.00000     0.00000     0.00000
  -------------------------------------------------------------------------------------
  Total      -0.09146    -0.07125    -0.05895     0.00000     0.00000    -0.02052
  in kB      -4.26882    -3.32568    -2.75140     0.00000     0.00000    -0.95785
  external pressure =       -3.45 kB  Pullay stress =        0.00 kB


 VOLUME and BASIS-vectors are now :
 -----------------------------------------------------------------------------
  energy-cutoff  :      400.00
  volume of cell :       34.33
      direct lattice vectors                 reciprocal lattice vectors
     5.014742593  0.000000000  0.028105067     0.198615637  0.000000000  0.142099114
     0.000000000  2.895123730  0.000000000     0.000000000  0.345408381  0.000000000
    -1.684844788  0.000000000  2.354951494    -0.002370370  0.000000000  0.422941321

  length of vectors
     5.014821350  2.895123730  2.895599851     0.244213696  0.345408381  0.422947963


 FORCES acting on ions
    electron-ion (+dipol)            ewald-force                    non-local-force                 convergence-correction
 -----------------------------------------------------------------------------------------------
   0.565E-06 0.189E-06 0.438E-06   -.164E-05 -.934E-06 -.210E-05   0.424E-23 0.000E+00 -.207E-24   0.211E-09 0.156E-10 0.133E-09
   -.111E-05 -.580E-06 -.378E-06   0.215E-05 0.934E-06 0.637E-06   0.662E-23 0.000E+00 0.000E+00   -.219E-09 -.254E-10 -.148E-09
   -.781E-06 0.285E-05 0.466E-05   -.170E-05 0.827E-06 -.382E-06   0.000E+00 0.000E+00 0.265E-22   0.185E-09 -.760E-10 0.373E-10
   0.200E-05 0.443E-06 0.431E-05   0.118E-05 -.827E-06 0.185E-05   0.397E-22 0.000E+00 0.132E-22   -.193E-09 0.237E-10 -.214E-09
 -----------------------------------------------------------------------------------------------
   0.678E-06 0.290E-05 0.902E-05   -.843E-15 0.210E-14 0.319E-14   0.506E-22 0.000E+00 0.395E-22   -.149E-10 -.620E-10 -.191E-09
 
 
 POSITION                                       TOTAL-FORCE (eV/Angst)
 -----------------------------------------------------------------------------------
      0.00000     -0.00000     -0.00000        -0.000000      0.000000     -0.000000
      0.82253      1.44756      2.36900         0.000000      0.000000     -0.000000
      4.17232      1.44756      1.20558         0.000000     -0.000000      0.000000
      1.66495     -0.00000      1.19153         0.000000      0.000000     -0.000000
 -----------------------------------------------------------------------------------
    total drift:                                0.000001      0.000003      0.000009


--------------------------------------------------------------------------------------------------------



  FREE ENERGIE OF THE ION-ELECTRON SYSTEM (eV)
  ---------------------------------------------------
  free  energy   TOTEN  =       -25.42221234 eV

  energy  without entropy=      -25.39140968  energy(sigma->0) =      -25.40681101
 
 d Force = 0.0000000E+00[ 0.000E+00, 0.000E+00]  d Energy = 0.3427930E+00-0.343E+00
 d Force = 0.0000000E+00[ 0.000E+00, 0.000E+00]  d Ewald  =-0.8662945E+02 0.866E+02


--------------------------------------------------------------------------------------------------------


    POTLOK:  cpu time    0.0099: real time    0.0099


--------------------------------------------------------------------------------------------------------


 stress matrix after NEB project (eV)
     -0.09146      0.00000     -0.02052
      0.00000     -0.07125      0.00000
     -0.02052      0.00000     -0.05895
  FORCES: max atom, RMS     0.000000    0.000000
  FORCE total and by dimension    0.000000    0.000000
  Stress total and by dimension    0.133264    0.091460


--------------------------------------------------------------------------------------------------------


  
 reached required accuracy - stopping structural energy minimisation
     LOOP+:  cpu time   27.2614: real time   27.4061
    4ORBIT:  cpu time    0.0000: real time    0.0000

 total amount of memory used by VASP MPI-rank0    44405. kBytes
=======================================================================

   base      :      30000. kBytes
   nonl-proj :      10629. kBytes
   fftplans  :        192. kBytes
   grid      :        313. kBytes
   one-center:         15. kBytes
   wavefun   :       3256. kBytes
 
  
  
 General timing and accounting informations for this job:
 ========================================================
  
                  Total CPU time used (sec):      111.129
                            User time (sec):      109.275
                          System time (sec):        1.855
                         Elapsed time (sec):      111.850
  
                   Maximum memory used (kb):       57052.
                   Average memory used (kb):           0.
  
                          Minor page faults:        28477
                          Major page faults:           14
                 Voluntary context switches:          446
