 vasp.5.4.4.18Apr17-6-g9f103f2a35 (build Apr 13 2025 12:23:30) complex          
  
 executed on             LinuxIFC date 2025.04.17  15:21:41
 running on   16 total cores
 distrk:  each k-point on   16 cores,    1 groups
 distr:  one band on NCORES_PER_BAND=   4 cores,    4 groups


--------------------------------------------------------------------------------------------------------


 INCAR:
 POTCAR:    PAW_PBE Co 02Aug2007                  
 POTCAR:    PAW_PBE Co 02Aug2007                  
   SHA256 =  0e690c60710354995174544f52f9f2c30879afabeffe3b3fbd4001cb294e56d4 Co
   COPYR  = (c) Copyright 02Aug2007 Georg Kresse                                
   COPYR  = This file is part of the software VASP. Any use, copying, and all ot
   COPYR  = If you do not have a valid VASP license, you may not use, copy or di
   VRHFIN =Co: d8 s1                                                            
   LEXCH  = PE                                                                  
   EATOM  =   813.3670 eV,   59.7808 Ry                                         
                                                                                
   TITEL  = PAW_PBE Co 02Aug2007                                                
   LULTRA =        F    use ultrasoft PP ?                                      
   IUNSCR =        1    unscreen: 0-lin 1-nonlin 2-no                           
   RPACOR =    2.000    partial core radius                                     
   POMASS =   58.933; ZVAL   =    9.000    mass and valenz                      
   RCORE  =    2.300    outmost cutoff radius                                   
   RWIGS  =    2.460; RWIGS  =    1.302    wigner-seitz radius (au A)           
   ENMAX  =  267.968; ENMIN  =  200.976 eV                                      
   RCLOC  =    1.203    cutoff for local pot                                    
   LCOR   =        T    correct aug charges                                     
   LPAW   =        T    paw PP                                                  
   EAUG   =  477.818                                                            
   DEXC   =    0.000                                                            
   RMAX   =    2.360    core radius for proj-oper                               
   RAUG   =    1.300    factor for augmentation sphere                          
   RDEP   =    2.393    radius for radial grids                                 
   RDEPT  =    1.864    core radius for aug-charge                              
                                                                                
   Atomic configuration                                                         
    9 entries                                                                   
     n  l   j            E        occ.                                          
     1  0  0.50     -7587.6674   2.0000                                         
     2  0  0.50      -893.6084   2.0000                                         
     2  1  1.50      -764.5805   6.0000                                         
     3  0  0.50       -97.5973   2.0000                                         
     3  1  1.50       -60.9648   6.0000                                         
     3  2  2.50        -4.2382   8.0000                                         
     4  0  0.50        -4.3746   1.0000                                         
     4  1  1.50        -4.0817   0.0000                                         
     4  3  2.50        -1.3606   0.0000                                         
   Description                                                                  
     l       E           TYP  RCUT    TYP  RCUT                                 
     2     -4.2382362     23  2.300                                             
     2     -5.5988188     23  2.300                                             
     0     -4.3745797     23  2.300                                             
     0      5.7660125     23  2.300                                             
     1     -2.7211652     23  2.300                                             
     1     16.9860234     23  2.300                                             
  local pseudopotential read in
  partial core-charges read in
  partial kinetic energy density read in
  atomic valenz-charges read in
  non local Contribution for L=           2  read in
    real space projection operators read in
  non local Contribution for L=           2  read in
    real space projection operators read in
  non local Contribution for L=           0  read in
    real space projection operators read in
  non local Contribution for L=           0  read in
    real space projection operators read in
  non local Contribution for L=           1  read in
    real space projection operators read in
  non local Contribution for L=           1  read in
    real space projection operators read in
    PAW grid and wavefunctions read in
 
   number of l-projection  operators is LMAX  =           6
   number of lm-projection operators is LMMAX =          18
 
  PAW_PBE Co 02Aug2007                  :
 energy of atom  1       EATOM= -813.3670
 kinetic energy error for atom=    0.0093 (will be added to EATOM!!)
 
 
 POSCAR: Co                                      
  positions in cartesian coordinates
  No initial velocities read in
 exchange correlation table for  LEXCH =        8
   RHO(1)=    0.500       N(1)  =     2000
   RHO(2)=  100.500       N(2)  =     4000

 VTST: version 3.2, (02/03/18)

 CHAIN: initializing optimizer
 
 OPT: Using VASP Conjugate-Gradient optimizer
 CHAIN: Read ICHAIN            0
 
 POSCAR: Co                                      
  positions in cartesian coordinates
  No initial velocities read in
 


--------------------------------------------------------------------------------------------------------


 ion  position               nearest neighbor table
   1  0.000  0.000  0.000-   2 2.48   3 2.48   4 2.48   4 2.48   2 2.48   3 2.48   3 2.48   4 2.48
                             2 2.48   3 2.48   2 2.48   4 2.48
   2  0.000  0.500  0.500-   1 2.48   3 2.48   4 2.48   4 2.48   3 2.48   1 2.48   4 2.48   1 2.48
                             3 2.48   3 2.48   4 2.48   1 2.48
   3  0.500  0.000  0.500-   1 2.48   2 2.48   4 2.48   4 2.48   2 2.48   1 2.48   4 2.48   1 2.48
                             2 2.48   4 2.48   2 2.48   1 2.48
   4  0.500  0.500  0.000-   1 2.48   2 2.48   3 2.48   3 2.48   2 2.48   1 2.48   3 2.48   1 2.48
                             2 2.48   3 2.48   2 2.48   1 2.48
 
  LATTYP: Found a simple cubic cell.
 ALAT       =     3.5055191313
  
  Lattice vectors:
  
 A1 = (   3.5055191313,   0.0000000000,   0.0000000000)
 A2 = (   0.0000000000,   3.5055191313,   0.0000000000)
 A3 = (   0.0000000000,   0.0000000000,   3.5055191313)


Analysis of symmetry for initial positions (statically):
=====================================================================
 Subroutine PRICEL returns following result:
 
  LATTYP: Found a face centered cubic cell.
 ALAT       =     3.5055191313
  
  Lattice vectors:
  
 A1 = (   1.7527595657,   1.7527595657,   0.0000000000)
 A2 = (   1.7527595657,   0.0000000000,  -1.7527595657)
 A3 = (   0.0000000000,   1.7527595657,  -1.7527595657)
 
   4 primitive cells build up your supercell.
 

 Routine SETGRP: Setting up the symmetry group for a 
 simple cubic supercell.


 Subroutine GETGRP returns: Found 48 space group operations
 (whereof 48 operations were pure point group operations)
 out of a pool of 48 trial point group operations.


The static configuration has the point symmetry O_h .


Analysis of symmetry for dynamics (positions and initial velocities):
=====================================================================
 Subroutine PRICEL returns following result:
 
  LATTYP: Found a face centered cubic cell.
 ALAT       =     3.5055191313
  
  Lattice vectors:
  
 A1 = (   1.7527595657,   1.7527595657,   0.0000000000)
 A2 = (   1.7527595657,   0.0000000000,  -1.7527595657)
 A3 = (   0.0000000000,   1.7527595657,  -1.7527595657)
 
   4 primitive cells build up your supercell.
 

 Routine SETGRP: Setting up the symmetry group for a 
 simple cubic supercell.


 Subroutine GETGRP returns: Found 48 space group operations
 (whereof 48 operations were pure point group operations)
 out of a pool of 48 trial point group operations.


The dynamic configuration has the point symmetry O_h .


 Subroutine INISYM returns: Found 48 space group operations
 (whereof 48 operations are pure point group operations),
 and found     4 'primitive' translations

 
 
 KPOINTS: KPOINTS created by Atomic Simulation Env

Automatic generation of k-mesh.
Space group operators:
 irot       det(A)        alpha          n_x          n_y          n_z        tau_x        tau_y        tau_z
    1     1.000000     0.000000     1.000000     0.000000     0.000000     0.000000     0.000000     0.000000
    2    -1.000000     0.000000     1.000000     0.000000     0.000000     0.000000     0.000000     0.000000
    3     1.000000   120.000000    -0.577350    -0.577350    -0.577350     0.000000     0.000000     0.000000
    4    -1.000000   120.000000    -0.577350    -0.577350    -0.577350     0.000000     0.000000     0.000000
    5     1.000000   120.000000     0.577350     0.577350     0.577350     0.000000     0.000000     0.000000
    6    -1.000000   120.000000     0.577350     0.577350     0.577350     0.000000     0.000000     0.000000
    7     1.000000    90.000000     0.000000     0.000000    -1.000000     0.000000     0.000000     0.000000
    8    -1.000000    90.000000     0.000000     0.000000    -1.000000     0.000000     0.000000     0.000000
    9     1.000000   180.000000     0.000000     0.707107     0.707107     0.000000     0.000000     0.000000
   10    -1.000000   180.000000     0.000000     0.707107     0.707107     0.000000     0.000000     0.000000
   11     1.000000    90.000000     0.000000     1.000000     0.000000     0.000000     0.000000     0.000000
   12    -1.000000    90.000000     0.000000     1.000000     0.000000     0.000000     0.000000     0.000000
   13     1.000000   180.000000     0.000000     0.000000     1.000000     0.000000     0.000000     0.000000
   14    -1.000000   180.000000     0.000000     0.000000     1.000000     0.000000     0.000000     0.000000
   15     1.000000   120.000000    -0.577350     0.577350     0.577350     0.000000     0.000000     0.000000
   16    -1.000000   120.000000    -0.577350     0.577350     0.577350     0.000000     0.000000     0.000000
   17     1.000000   120.000000    -0.577350     0.577350    -0.577350     0.000000     0.000000     0.000000
   18    -1.000000   120.000000    -0.577350     0.577350    -0.577350     0.000000     0.000000     0.000000
   19     1.000000    90.000000     0.000000     0.000000     1.000000     0.000000     0.000000     0.000000
   20    -1.000000    90.000000     0.000000     0.000000     1.000000     0.000000     0.000000     0.000000
   21     1.000000    90.000000    -1.000000     0.000000     0.000000     0.000000     0.000000     0.000000
   22    -1.000000    90.000000    -1.000000     0.000000     0.000000     0.000000     0.000000     0.000000
   23     1.000000   180.000000     0.707107     0.000000     0.707107     0.000000     0.000000     0.000000
   24    -1.000000   180.000000     0.707107     0.000000     0.707107     0.000000     0.000000     0.000000
   25     1.000000   120.000000     0.577350    -0.577350     0.577350     0.000000     0.000000     0.000000
   26    -1.000000   120.000000     0.577350    -0.577350     0.577350     0.000000     0.000000     0.000000
   27     1.000000   120.000000    -0.577350    -0.577350     0.577350     0.000000     0.000000     0.000000
   28    -1.000000   120.000000    -0.577350    -0.577350     0.577350     0.000000     0.000000     0.000000
   29     1.000000   180.000000     1.000000     0.000000     0.000000     0.000000     0.000000     0.000000
   30    -1.000000   180.000000     1.000000     0.000000     0.000000     0.000000     0.000000     0.000000
   31     1.000000    90.000000     0.000000    -1.000000     0.000000     0.000000     0.000000     0.000000
   32    -1.000000    90.000000     0.000000    -1.000000     0.000000     0.000000     0.000000     0.000000
   33     1.000000   180.000000     0.707107     0.707107     0.000000     0.000000     0.000000     0.000000
   34    -1.000000   180.000000     0.707107     0.707107     0.000000     0.000000     0.000000     0.000000
   35     1.000000    90.000000     1.000000     0.000000     0.000000     0.000000     0.000000     0.000000
   36    -1.000000    90.000000     1.000000     0.000000     0.000000     0.000000     0.000000     0.000000
   37     1.000000   120.000000     0.577350    -0.577350    -0.577350     0.000000     0.000000     0.000000
   38    -1.000000   120.000000     0.577350    -0.577350    -0.577350     0.000000     0.000000     0.000000
   39     1.000000   180.000000     0.000000     1.000000     0.000000     0.000000     0.000000     0.000000
   40    -1.000000   180.000000     0.000000     1.000000     0.000000     0.000000     0.000000     0.000000
   41     1.000000   120.000000     0.577350     0.577350    -0.577350     0.000000     0.000000     0.000000
   42    -1.000000   120.000000     0.577350     0.577350    -0.577350     0.000000     0.000000     0.000000
   43     1.000000   180.000000     0.000000    -0.707107     0.707107     0.000000     0.000000     0.000000
   44    -1.000000   180.000000     0.000000    -0.707107     0.707107     0.000000     0.000000     0.000000
   45     1.000000   180.000000     0.707107    -0.707107     0.000000     0.000000     0.000000     0.000000
   46    -1.000000   180.000000     0.707107    -0.707107     0.000000     0.000000     0.000000     0.000000
   47     1.000000   180.000000     0.707107     0.000000    -0.707107     0.000000     0.000000     0.000000
   48    -1.000000   180.000000     0.707107     0.000000    -0.707107     0.000000     0.000000     0.000000
 
 Subroutine IBZKPT returns following result:
 ===========================================
 
 Found     35 irreducible k-points:
 
 Following reciprocal coordinates:
            Coordinates               Weight
  0.000000  0.000000  0.000000      1.000000
  0.111111  0.000000  0.000000      6.000000
  0.222222  0.000000  0.000000      6.000000
  0.333333  0.000000  0.000000      6.000000
  0.444444  0.000000  0.000000      6.000000
  0.111111  0.111111  0.000000     12.000000
  0.222222  0.111111  0.000000     24.000000
  0.333333  0.111111  0.000000     24.000000
  0.444444  0.111111  0.000000     24.000000
  0.222222  0.222222  0.000000     12.000000
  0.333333  0.222222  0.000000     24.000000
  0.444444  0.222222  0.000000     24.000000
  0.333333  0.333333  0.000000     12.000000
  0.444444  0.333333  0.000000     24.000000
  0.444444  0.444444  0.000000     12.000000
  0.111111  0.111111  0.111111      8.000000
  0.222222  0.111111  0.111111     24.000000
  0.333333  0.111111  0.111111     24.000000
  0.444444  0.111111  0.111111     24.000000
  0.222222  0.222222  0.111111     24.000000
  0.333333  0.222222  0.111111     48.000000
  0.444444  0.222222  0.111111     48.000000
  0.333333  0.333333  0.111111     24.000000
  0.444444  0.333333  0.111111     48.000000
  0.444444  0.444444  0.111111     24.000000
  0.222222  0.222222  0.222222      8.000000
  0.333333  0.222222  0.222222     24.000000
  0.444444  0.222222  0.222222     24.000000
  0.333333  0.333333  0.222222     24.000000
  0.444444  0.333333  0.222222     48.000000
  0.444444  0.444444  0.222222     24.000000
  0.333333  0.333333  0.333333      8.000000
  0.444444  0.333333  0.333333     24.000000
  0.444444  0.444444  0.333333     24.000000
  0.444444  0.444444  0.444444      8.000000
 
 Following cartesian coordinates:
            Coordinates               Weight
  0.000000  0.000000  0.000000      1.000000
  0.031696  0.000000  0.000000      6.000000
  0.063392  0.000000  0.000000      6.000000
  0.095088  0.000000  0.000000      6.000000
  0.126784  0.000000  0.000000      6.000000
  0.031696  0.031696  0.000000     12.000000
  0.063392  0.031696  0.000000     24.000000
  0.095088  0.031696  0.000000     24.000000
  0.126784  0.031696  0.000000     24.000000
  0.063392  0.063392  0.000000     12.000000
  0.095088  0.063392  0.000000     24.000000
  0.126784  0.063392  0.000000     24.000000
  0.095088  0.095088  0.000000     12.000000
  0.126784  0.095088  0.000000     24.000000
  0.126784  0.126784  0.000000     12.000000
  0.031696  0.031696  0.031696      8.000000
  0.063392  0.031696  0.031696     24.000000
  0.095088  0.031696  0.031696     24.000000
  0.126784  0.031696  0.031696     24.000000
  0.063392  0.063392  0.031696     24.000000
  0.095088  0.063392  0.031696     48.000000
  0.126784  0.063392  0.031696     48.000000
  0.095088  0.095088  0.031696     24.000000
  0.126784  0.095088  0.031696     48.000000
  0.126784  0.126784  0.031696     24.000000
  0.063392  0.063392  0.063392      8.000000
  0.095088  0.063392  0.063392     24.000000
  0.126784  0.063392  0.063392     24.000000
  0.095088  0.095088  0.063392     24.000000
  0.126784  0.095088  0.063392     48.000000
  0.126784  0.126784  0.063392     24.000000
  0.095088  0.095088  0.095088      8.000000
  0.126784  0.095088  0.095088     24.000000
  0.126784  0.126784  0.095088     24.000000
  0.126784  0.126784  0.126784      8.000000
 


--------------------------------------------------------------------------------------------------------




 Dimension of arrays:
   k-points           NKPTS =     35   k-points in BZ     NKDIM =     35   number of bands    NBANDS=     24
   number of dos      NEDOS =    301   number of ions     NIONS =      4
   non local maximal  LDIM  =      6   non local SUM 2l+1 LMDIM =     18
   total plane-waves  NPLWV =   5832
   max r-space proj   IRMAX =      1   max aug-charges    IRDMAX=   5538
   dimension x,y,z NGX =    18 NGY =   18 NGZ =   18
   dimension x,y,z NGXF=    36 NGYF=   36 NGZF=   36
   support grid    NGXF=    36 NGYF=   36 NGZF=   36
   ions per type =               4
   NGX,Y,Z   is equivalent  to a cutoff of   8.54,  8.54,  8.54 a.u.
   NGXF,Y,Z  is equivalent  to a cutoff of  17.07, 17.07, 17.07 a.u.

 SYSTEM =  unknown system                          
 POSCAR =  Co                                      

 Startparameter for this run:
   NWRITE =      2    write-flag & timer
   PREC   = normal    normal or accurate (medium, high low for compatibility)
   ISTART =      0    job   : 0-new  1-cont  2-samecut
   ICHARG =      2    charge: 1-file 2-atom 10-const
   ISPIN  =      1    spin polarized calculation?
   LNONCOLLINEAR =      F non collinear calculations
   LSORBIT =      F    spin-orbit coupling
   INIWAV =      1    electr: 0-lowe 1-rand  2-diag
   LASPH  =      F    aspherical Exc in radial PAW
   METAGGA=      F    non-selfconsistent MetaGGA calc.

 Electronic Relaxation 1
   ENCUT  =  400.0 eV  29.40 Ry    5.42 a.u.   5.72  5.72  5.72*2*pi/ulx,y,z
   ENINI  =  400.0     initial cutoff
   ENAUG  =  477.8 eV  augmentation charge cutoff
   NELM   =     60;   NELMIN=  4; NELMDL= -5     # of ELM steps 
   EDIFF  = 0.1E-05   stopping-criterion for ELM
   LREAL  =      F    real-space projection
   NLSPLINE    = F    spline interpolate recip. space projectors
   LCOMPAT=      F    compatible to vasp.4.4
   GGA_COMPAT  = T    GGA compatible to vasp.4.4-vasp.4.6
   LMAXPAW     = -100 max onsite density
   LMAXMIX     =    2 max onsite mixed and CHGCAR
   VOSKOWN=      0    Vosko Wilk Nusair interpolation
   ROPT   =    0.00000
 Ionic relaxation
   EDIFFG = 0.1E-01   stopping-criterion for IOM
   NSW    =     20    number of steps for IOM
   NBLOCK =      1;   KBLOCK =     20    inner block; outer block 
   IBRION =      2    ionic relax: 0-MD 1-quasi-New 2-CG
   NFREE  =      1    steps in history (QN), initial steepest desc. (CG)
   ISIF   =      3    stress and relaxation
   IWAVPR =     11    prediction:  0-non 1-charg 2-wave 3-comb
   ISYM   =      2    0-nonsym 1-usesym 2-fastsym
   LCORR  =      T    Harris-Foulkes like correction to forces

   POTIM  = 0.5000    time-step for ionic-motion
   TEIN   =    0.0    initial temperature
   TEBEG  =    0.0;   TEEND  =   0.0 temperature during run
   SMASS  =  -3.00    Nose mass-parameter (am)
   estimated Nose-frequenzy (Omega)   =  0.10E-29 period in steps =****** mass=  -0.281E-27a.u.
   SCALEE = 1.0000    scale energy and forces
   NPACO  =    256;   APACO  = 16.0  distance and # of slots for P.C.
   PSTRESS=    0.0 pullay stress

  Mass of Ions in am
   POMASS =  58.93
  Ionic Valenz
   ZVAL   =   9.00
  Atomic Wigner-Seitz radii
   RWIGS  =  -1.00
  virtual crystal weights 
   VCA    =   1.00
   NELECT =      36.0000    total number of electrons
   NUPDOWN=      -1.0000    fix difference up-down

 DOS related values:
   EMIN   =  10.00;   EMAX   =-10.00  energy-range for DOS
   EFERMI =   0.00
   ISMEAR =     0;   SIGMA  =   0.10  broadening in eV -4-tet -1-fermi 0-gaus

 Electronic relaxation 2 (details)
   IALGO  =     38    algorithm
   LDIAG  =      T    sub-space diagonalisation (order eigenvalues)
   LSUBROT=      F    optimize rotation matrix (better conditioning)
   TURBO    =      0    0=normal 1=particle mesh
   IRESTART =      0    0=no restart 2=restart with 2 vectors
   NREBOOT  =      0    no. of reboots
   NMIN     =      0    reboot dimension
   EREF     =   0.00    reference energy to select bands
   IMIX   =      4    mixing-type and parameters
     AMIX     =   0.40;   BMIX     =  1.00
     AMIX_MAG =   1.60;   BMIX_MAG =  1.00
     AMIN     =   0.10
     WC   =   100.;   INIMIX=   1;  MIXPRE=   1;  MAXMIX= -45

 Intra band minimization:
   WEIMIN = 0.0010     energy-eigenvalue tresh-hold
   EBREAK =  0.10E-07  absolut break condition
   DEPER  =   0.30     relativ break condition  

   TIME   =   0.40     timestep for ELM

  volume/ion in A,a.u.               =      10.77        72.68
  Fermi-wavevector in a.u.,A,eV,Ry     =   1.542020  2.913995 32.352280  2.377825
  Thomas-Fermi vector in A             =   2.647884
 
 Write flags
   LWAVE        =      F    write WAVECAR
   LDOWNSAMPLE  =      F    k-point downsampling of WAVECAR
   LCHARG       =      F    write CHGCAR
   LVTOT        =      F    write LOCPOT, total local potential
   LVHAR        =      F    write LOCPOT, Hartree potential only
   LELF         =      F    write electronic localiz. function (ELF)
   LORBIT       =      0    0 simple, 1 ext, 2 COOP (PROOUT), +10 PAW based schemes


 Dipole corrections
   LMONO  =      F    monopole corrections only (constant potential shift)
   LDIPOL =      F    correct potential (dipole corrections)
   IDIPOL =      0    1-x, 2-y, 3-z, 4-all directions 
   EPSILON=  1.0000000 bulk dielectric constant

 Exchange correlation treatment:
   GGA     =    PE    GGA type
   LEXCH   =     8    internal setting for exchange type
   VOSKOWN=      0    Vosko Wilk Nusair interpolation
   LHFCALC =     F    Hartree Fock is set to
   LHFONE  =     F    Hartree Fock one center treatment
   AEXX    =    0.0000 exact exchange contribution

 Linear response parameters
   LEPSILON=     F    determine dielectric tensor
   LRPA    =     F    only Hartree local field effects (RPA)
   LNABLA  =     F    use nabla operator in PAW spheres
   LVEL    =     F    velocity operator in full k-point grid
   LINTERFAST=   F  fast interpolation
   KINTER  =     0    interpolate to denser k-point grid
   CSHIFT  =0.1000    complex shift for real part using Kramers Kronig
   OMEGAMAX=  -1.0    maximum frequency
   DEG_THRESHOLD= 0.2000000E-02 threshold for treating states as degnerate
   RTIME   =   -0.100 relaxation time in fs
  (WPLASMAI=    0.000 imaginary part of plasma frequency in eV, 0.658/RTIME)
   DFIELD  = 0.0000000 0.0000000 0.0000000 field for delta impulse in time
 
 Orbital magnetization related:
   ORBITALMAG=     F  switch on orbital magnetization
   LCHIMAG   =     F  perturbation theory with respect to B field
   DQ        =  0.001000  dq finite difference perturbation B field
   LLRAUG    =     F  two centre corrections for induced B field



--------------------------------------------------------------------------------------------------------


 conjugate gradient relaxation of ions
 charge density and potential will be updated during run
 non-spin polarized calculation
 Variant of blocked Davidson
 Davidson routine will perform the subspace rotation
 perform sub-space diagonalisation
    after iterative eigenvector-optimisation
 modified Broyden-mixing scheme, WC =      100.0
 initial mixing is a Kerker type mixing with AMIX =  0.4000 and BMIX =      1.0000
 Hartree-type preconditioning will be used
 using additional bands            6
 reciprocal scheme for non local part
 use partial core corrections
 calculate Harris-corrections to forces 
   (improved forces if not selfconsistent)
 use gradient corrections 
 use of overlap-Matrix (Vanderbilt PP)
 Gauss-broadening in eV      SIGMA  =   0.10


--------------------------------------------------------------------------------------------------------


  energy-cutoff  :      400.00
  volume of cell :       43.08
      direct lattice vectors                 reciprocal lattice vectors
     3.505519131  0.000000000  0.000000000     0.285264454  0.000000000  0.000000000
     0.000000000  3.505519131  0.000000000     0.000000000  0.285264454  0.000000000
     0.000000000  0.000000000  3.505519131     0.000000000  0.000000000  0.285264454

  length of vectors
     3.505519131  3.505519131  3.505519131     0.285264454  0.285264454  0.285264454


 
 k-points in units of 2pi/SCALE and weight: KPOINTS created by Atomic Simulation Env
   0.00000000  0.00000000  0.00000000       0.001
   0.03169605  0.00000000  0.00000000       0.008
   0.06339210  0.00000000  0.00000000       0.008
   0.09508815  0.00000000  0.00000000       0.008
   0.12678420  0.00000000  0.00000000       0.008
   0.03169605  0.03169605  0.00000000       0.016
   0.06339210  0.03169605  0.00000000       0.033
   0.09508815  0.03169605  0.00000000       0.033
   0.12678420  0.03169605  0.00000000       0.033
   0.06339210  0.06339210  0.00000000       0.016
   0.09508815  0.06339210  0.00000000       0.033
   0.12678420  0.06339210  0.00000000       0.033
   0.09508815  0.09508815  0.00000000       0.016
   0.12678420  0.09508815  0.00000000       0.033
   0.12678420  0.12678420  0.00000000       0.016
   0.03169605  0.03169605  0.03169605       0.011
   0.06339210  0.03169605  0.03169605       0.033
   0.09508815  0.03169605  0.03169605       0.033
   0.12678420  0.03169605  0.03169605       0.033
   0.06339210  0.06339210  0.03169605       0.033
   0.09508815  0.06339210  0.03169605       0.066
   0.12678420  0.06339210  0.03169605       0.066
   0.09508815  0.09508815  0.03169605       0.033
   0.12678420  0.09508815  0.03169605       0.066
   0.12678420  0.12678420  0.03169605       0.033
   0.06339210  0.06339210  0.06339210       0.011
   0.09508815  0.06339210  0.06339210       0.033
   0.12678420  0.06339210  0.06339210       0.033
   0.09508815  0.09508815  0.06339210       0.033
   0.12678420  0.09508815  0.06339210       0.066
   0.12678420  0.12678420  0.06339210       0.033
   0.09508815  0.09508815  0.09508815       0.011
   0.12678420  0.09508815  0.09508815       0.033
   0.12678420  0.12678420  0.09508815       0.033
   0.12678420  0.12678420  0.12678420       0.011
 
 k-points in reciprocal lattice and weights: KPOINTS created by Atomic Simulation Env
   0.00000000  0.00000000  0.00000000       0.001
   0.11111111  0.00000000  0.00000000       0.008
   0.22222222  0.00000000  0.00000000       0.008
   0.33333333  0.00000000  0.00000000       0.008
   0.44444444  0.00000000  0.00000000       0.008
   0.11111111  0.11111111  0.00000000       0.016
   0.22222222  0.11111111  0.00000000       0.033
   0.33333333  0.11111111  0.00000000       0.033
   0.44444444  0.11111111  0.00000000       0.033
   0.22222222  0.22222222  0.00000000       0.016
   0.33333333  0.22222222  0.00000000       0.033
   0.44444444  0.22222222  0.00000000       0.033
   0.33333333  0.33333333  0.00000000       0.016
   0.44444444  0.33333333  0.00000000       0.033
   0.44444444  0.44444444  0.00000000       0.016
   0.11111111  0.11111111  0.11111111       0.011
   0.22222222  0.11111111  0.11111111       0.033
   0.33333333  0.11111111  0.11111111       0.033
   0.44444444  0.11111111  0.11111111       0.033
   0.22222222  0.22222222  0.11111111       0.033
   0.33333333  0.22222222  0.11111111       0.066
   0.44444444  0.22222222  0.11111111       0.066
   0.33333333  0.33333333  0.11111111       0.033
   0.44444444  0.33333333  0.11111111       0.066
   0.44444444  0.44444444  0.11111111       0.033
   0.22222222  0.22222222  0.22222222       0.011
   0.33333333  0.22222222  0.22222222       0.033
   0.44444444  0.22222222  0.22222222       0.033
   0.33333333  0.33333333  0.22222222       0.033
   0.44444444  0.33333333  0.22222222       0.066
   0.44444444  0.44444444  0.22222222       0.033
   0.33333333  0.33333333  0.33333333       0.011
   0.44444444  0.33333333  0.33333333       0.033
   0.44444444  0.44444444  0.33333333       0.033
   0.44444444  0.44444444  0.44444444       0.011
 
 position of ions in fractional coordinates (direct lattice) 
   0.00000000  0.00000000  0.00000000
   0.00000000  0.50000000  0.50000000
   0.50000000  0.00000000  0.50000000
   0.50000000  0.50000000  0.00000000
 
 position of ions in cartesian coordinates  (Angst):
   0.00000000  0.00000000  0.00000000
   0.00000000  1.75275957  1.75275957
   1.75275957  0.00000000  1.75275957
   1.75275957  1.75275957  0.00000000
 


--------------------------------------------------------------------------------------------------------


 k-point  1 :   0.0000 0.0000 0.0000  plane waves:     751
 k-point  2 :   0.1111 0.0000 0.0000  plane waves:     767
 k-point  3 :   0.2222 0.0000 0.0000  plane waves:     779
 k-point  4 :   0.3333 0.0000 0.0000  plane waves:     792
 k-point  5 :   0.4444 0.0000 0.0000  plane waves:     800
 k-point  6 :   0.1111 0.1111 0.0000  plane waves:     772
 k-point  7 :   0.2222 0.1111 0.0000  plane waves:     782
 k-point  8 :   0.3333 0.1111 0.0000  plane waves:     784
 k-point  9 :   0.4444 0.1111 0.0000  plane waves:     790
 k-point 10 :   0.2222 0.2222 0.0000  plane waves:     780
 k-point 11 :   0.3333 0.2222 0.0000  plane waves:     779
 k-point 12 :   0.4444 0.2222 0.0000  plane waves:     784
 k-point 13 :   0.3333 0.3333 0.0000  plane waves:     786
 k-point 14 :   0.4444 0.3333 0.0000  plane waves:     787
 k-point 15 :   0.4444 0.4444 0.0000  plane waves:     782
 k-point 16 :   0.1111 0.1111 0.1111  plane waves:     772
 k-point 17 :   0.2222 0.1111 0.1111  plane waves:     787
 k-point 18 :   0.3333 0.1111 0.1111  plane waves:     784
 k-point 19 :   0.4444 0.1111 0.1111  plane waves:     793
 k-point 20 :   0.2222 0.2222 0.1111  plane waves:     789
 k-point 21 :   0.3333 0.2222 0.1111  plane waves:     779
 k-point 22 :   0.4444 0.2222 0.1111  plane waves:     779
 k-point 23 :   0.3333 0.3333 0.1111  plane waves:     780
 k-point 24 :   0.4444 0.3333 0.1111  plane waves:     789
 k-point 25 :   0.4444 0.4444 0.1111  plane waves:     783
 k-point 26 :   0.2222 0.2222 0.2222  plane waves:     775
 k-point 27 :   0.3333 0.2222 0.2222  plane waves:     781
 k-point 28 :   0.4444 0.2222 0.2222  plane waves:     786
 k-point 29 :   0.3333 0.3333 0.2222  plane waves:     779
 k-point 30 :   0.4444 0.3333 0.2222  plane waves:     780
 k-point 31 :   0.4444 0.4444 0.2222  plane waves:     785
 k-point 32 :   0.3333 0.3333 0.3333  plane waves:     789
 k-point 33 :   0.4444 0.3333 0.3333  plane waves:     782
 k-point 34 :   0.4444 0.4444 0.3333  plane waves:     774
 k-point 35 :   0.4444 0.4444 0.4444  plane waves:     771

 maximum and minimum number of plane-waves per node :       205      182

 maximum number of plane-waves:       800
 maximum index in each direction: 
   IXMAX=    5   IYMAX=    5   IZMAX=    5
   IXMIN=   -6   IYMIN=   -6   IZMIN=   -6


 parallel 3D FFT for wavefunctions:
    minimum data exchange during FFTs selected (reduces bandwidth)
 parallel 3D FFT for charge:
    minimum data exchange during FFTs selected (reduces bandwidth)


 total amount of memory used by VASP MPI-rank0    32245. kBytes
=======================================================================

   base      :      30000. kBytes
   nonl-proj :       1041. kBytes
   fftplans  :        178. kBytes
   grid      :        259. kBytes
   one-center:         15. kBytes
   wavefun   :        752. kBytes
 
     INWAV:  cpu time    0.0000: real time    0.0000
 Broyden mixing: mesh for mixing (old mesh)
   NGX = 11   NGY = 11   NGZ = 11
  (NGX  = 36   NGY  = 36   NGZ  = 36)
  gives a total of   1331 points

 initial charge density was supplied:
 charge density of overlapping atoms calculated
 number of electron      36.0000000 magnetization 
 keeping initial charge density in first step


--------------------------------------------------------------------------------------------------------


 Maximum index for augmentation-charges          662 (set IRDMAX)


--------------------------------------------------------------------------------------------------------


 First call to EWALD:  gamma=   0.506
 Maximum number of real-space cells 3x 3x 3
 Maximum number of reciprocal cells 3x 3x 3

    FEWALD:  cpu time    0.0022: real time    0.0022


--------------------------------------- Iteration      1(   1)  ---------------------------------------


    POTLOK:  cpu time    0.0271: real time    0.0279
    SETDIJ:  cpu time    0.0045: real time    0.0045
     EDDAV:  cpu time    0.7803: real time    0.7871
       DOS:  cpu time    0.0014: real time    0.0014
    --------------------------------------------
      LOOP:  cpu time    0.8133: real time    0.8209

 eigenvalue-minimisations  :  1680
 total energy-change (2. order) : 0.2099380E+03  (-0.1339894E+04)
 number of electron      36.0000000 magnetization 
 augmentation part       36.0000000 magnetization 

 Free energy of the ion-electron system (eV)
  ---------------------------------------------------
  alpha Z        PSCENC =       157.32409228
  Ewald energy   TEWEN  =     -3051.01979992
  -Hartree energ DENC   =      -596.73769630
  -exchange      EXHF   =         0.00000000
  -V(xc)+E(xc)   XCENC  =        67.00658909
  PAW double counting   =      2884.04511851    -3096.16494999
  entropy T*S    EENTRO =        -0.02269344
  eigenvalues    EBANDS =       592.07640767
  atomic energy  EATOM  =      3253.43093640
  Solvation  Ediel_sol  =         0.00000000
  ---------------------------------------------------
  free energy    TOTEN  =       209.93800431 eV

  energy without entropy =      209.96069774  energy(sigma->0) =      209.94935102


--------------------------------------------------------------------------------------------------------




--------------------------------------- Iteration      1(   2)  ---------------------------------------


     EDDAV:  cpu time    0.7914: real time    0.7955
       DOS:  cpu time    0.0015: real time    0.0015
    --------------------------------------------
      LOOP:  cpu time    0.7929: real time    0.7970

 eigenvalue-minimisations  :  1752
 total energy-change (2. order) :-0.2308338E+03  (-0.2214186E+03)
 number of electron      36.0000000 magnetization 
 augmentation part       36.0000000 magnetization 

 Free energy of the ion-electron system (eV)
  ---------------------------------------------------
  alpha Z        PSCENC =       157.32409228
  Ewald energy   TEWEN  =     -3051.01979992
  -Hartree energ DENC   =      -596.73769630
  -exchange      EXHF   =         0.00000000
  -V(xc)+E(xc)   XCENC  =        67.00658909
  PAW double counting   =      2884.04511851    -3096.16494999
  entropy T*S    EENTRO =        -0.03666722
  eigenvalues    EBANDS =       361.25654095
  atomic energy  EATOM  =      3253.43093640
  Solvation  Ediel_sol  =         0.00000000
  ---------------------------------------------------
  free energy    TOTEN  =       -20.89583620 eV

  energy without entropy =      -20.85916898  energy(sigma->0) =      -20.87750259


--------------------------------------------------------------------------------------------------------




--------------------------------------- Iteration      1(   3)  ---------------------------------------


     EDDAV:  cpu time    0.8076: real time    0.8120
       DOS:  cpu time    0.0016: real time    0.0016
    --------------------------------------------
      LOOP:  cpu time    0.8092: real time    0.8137

 eigenvalue-minimisations  :  1784
 total energy-change (2. order) :-0.1140810E+02  (-0.1074279E+02)
 number of electron      36.0000000 magnetization 
 augmentation part       36.0000000 magnetization 

 Free energy of the ion-electron system (eV)
  ---------------------------------------------------
  alpha Z        PSCENC =       157.32409228
  Ewald energy   TEWEN  =     -3051.01979992
  -Hartree energ DENC   =      -596.73769630
  -exchange      EXHF   =         0.00000000
  -V(xc)+E(xc)   XCENC  =        67.00658909
  PAW double counting   =      2884.04511851    -3096.16494999
  entropy T*S    EENTRO =        -0.03458350
  eigenvalues    EBANDS =       349.84635728
  atomic energy  EATOM  =      3253.43093640
  Solvation  Ediel_sol  =         0.00000000
  ---------------------------------------------------
  free energy    TOTEN  =       -32.30393615 eV

  energy without entropy =      -32.26935265  energy(sigma->0) =      -32.28664440


--------------------------------------------------------------------------------------------------------




--------------------------------------- Iteration      1(   4)  ---------------------------------------


     EDDAV:  cpu time    0.8925: real time    0.8971
       DOS:  cpu time    0.0015: real time    0.0015
    --------------------------------------------
      LOOP:  cpu time    0.8940: real time    0.8987

 eigenvalue-minimisations  :  2024
 total energy-change (2. order) :-0.2581345E+00  (-0.2561027E+00)
 number of electron      36.0000000 magnetization 
 augmentation part       36.0000000 magnetization 

 Free energy of the ion-electron system (eV)
  ---------------------------------------------------
  alpha Z        PSCENC =       157.32409228
  Ewald energy   TEWEN  =     -3051.01979992
  -Hartree energ DENC   =      -596.73769630
  -exchange      EXHF   =         0.00000000
  -V(xc)+E(xc)   XCENC  =        67.00658909
  PAW double counting   =      2884.04511851    -3096.16494999
  entropy T*S    EENTRO =        -0.03528239
  eigenvalues    EBANDS =       349.58892166
  atomic energy  EATOM  =      3253.43093640
  Solvation  Ediel_sol  =         0.00000000
  ---------------------------------------------------
  free energy    TOTEN  =       -32.56207066 eV

  energy without entropy =      -32.52678827  energy(sigma->0) =      -32.54442946


--------------------------------------------------------------------------------------------------------




--------------------------------------- Iteration      1(   5)  ---------------------------------------


     EDDAV:  cpu time    0.9752: real time    0.9807
       DOS:  cpu time    0.0016: real time    0.0016
    CHARGE:  cpu time    0.0794: real time    0.0798
    MIXING:  cpu time    0.0003: real time    0.0003
    --------------------------------------------
      LOOP:  cpu time    1.0566: real time    1.0624

 eigenvalue-minimisations  :  2256
 total energy-change (2. order) :-0.7283461E-02  (-0.7282899E-02)
 number of electron      35.9999750 magnetization 
 augmentation part       18.1485157 magnetization 

 Broyden mixing:
  rms(total) = 0.20212E+01    rms(broyden)= 0.20208E+01
  rms(prec ) = 0.42099E+01
  weight for this iteration     100.00

 Free energy of the ion-electron system (eV)
  ---------------------------------------------------
  alpha Z        PSCENC =       157.32409228
  Ewald energy   TEWEN  =     -3051.01979992
  -Hartree energ DENC   =      -596.73769630
  -exchange      EXHF   =         0.00000000
  -V(xc)+E(xc)   XCENC  =        67.00658909
  PAW double counting   =      2884.04511851    -3096.16494999
  entropy T*S    EENTRO =        -0.03526999
  eigenvalues    EBANDS =       349.58162580
  atomic energy  EATOM  =      3253.43093640
  Solvation  Ediel_sol  =         0.00000000
  ---------------------------------------------------
  free energy    TOTEN  =       -32.56935412 eV

  energy without entropy =      -32.53408413  energy(sigma->0) =      -32.55171912


--------------------------------------------------------------------------------------------------------




--------------------------------------- Iteration      1(   6)  ---------------------------------------


    POTLOK:  cpu time    0.0089: real time    0.0092
    SETDIJ:  cpu time    0.0042: real time    0.0042
     EDDAV:  cpu time    0.7687: real time    0.7729
       DOS:  cpu time    0.0017: real time    0.0017
    CHARGE:  cpu time    0.0747: real time    0.0750
    MIXING:  cpu time    0.0003: real time    0.0003
    --------------------------------------------
      LOOP:  cpu time    0.8585: real time    0.8634

 eigenvalue-minimisations  :  1680
 total energy-change (2. order) : 0.4248798E+01  (-0.4953702E+01)
 number of electron      35.9999734 magnetization 
 augmentation part       21.5386145 magnetization 

 Broyden mixing:
  rms(total) = 0.79514E+00    rms(broyden)= 0.79498E+00
  rms(prec ) = 0.14271E+01
  weight for this iteration     100.00

 eigenvalues of (default mixing * dielectric matrix)
  average eigenvalue GAMMA=   0.8115
  0.8115

 Free energy of the ion-electron system (eV)
  ---------------------------------------------------
  alpha Z        PSCENC =       157.32409228
  Ewald energy   TEWEN  =     -3051.01979992
  -Hartree energ DENC   =      -519.07279165
  -exchange      EXHF   =         0.00000000
  -V(xc)+E(xc)   XCENC  =        62.99142684
  PAW double counting   =      3157.88452235    -3346.87229141
  entropy T*S    EENTRO =        -0.05397995
  eigenvalues    EBANDS =       257.06732845
  atomic energy  EATOM  =      3253.43093640
  Solvation  Ediel_sol  =         0.00000000
  ---------------------------------------------------
  free energy    TOTEN  =       -28.32055661 eV

  energy without entropy =      -28.26657667  energy(sigma->0) =      -28.29356664


--------------------------------------------------------------------------------------------------------




--------------------------------------- Iteration      1(   7)  ---------------------------------------


    POTLOK:  cpu time    0.0089: real time    0.0091
    SETDIJ:  cpu time    0.0041: real time    0.0041
     EDDAV:  cpu time    0.7651: real time    0.7693
       DOS:  cpu time    0.0017: real time    0.0017
    CHARGE:  cpu time    0.0752: real time    0.0755
    MIXING:  cpu time    0.0004: real time    0.0004
    --------------------------------------------
      LOOP:  cpu time    0.8553: real time    0.8601

 eigenvalue-minimisations  :  1688
 total energy-change (2. order) : 0.9381911E+00  (-0.6219141E+00)
 number of electron      35.9999739 magnetization 
 augmentation part       20.3512562 magnetization 

 Broyden mixing:
  rms(total) = 0.22541E+00    rms(broyden)= 0.22531E+00
  rms(prec ) = 0.43267E+00
  weight for this iteration     100.00

 eigenvalues of (default mixing * dielectric matrix)
  average eigenvalue GAMMA=   1.0387
  0.6643  1.4131

 Free energy of the ion-electron system (eV)
  ---------------------------------------------------
  alpha Z        PSCENC =       157.32409228
  Ewald energy   TEWEN  =     -3051.01979992
  -Hartree energ DENC   =      -537.61750790
  -exchange      EXHF   =         0.00000000
  -V(xc)+E(xc)   XCENC  =        63.99145895
  PAW double counting   =      3303.85275605    -3507.27676607
  entropy T*S    EENTRO =        -0.04250956
  eigenvalues    EBANDS =       289.97497425
  atomic energy  EATOM  =      3253.43093640
  Solvation  Ediel_sol  =         0.00000000
  ---------------------------------------------------
  free energy    TOTEN  =       -27.38236552 eV

  energy without entropy =      -27.33985596  energy(sigma->0) =      -27.36111074


--------------------------------------------------------------------------------------------------------




--------------------------------------- Iteration      1(   8)  ---------------------------------------


    POTLOK:  cpu time    0.0089: real time    0.0091
    SETDIJ:  cpu time    0.0039: real time    0.0039
     EDDAV:  cpu time    0.8764: real time    0.8810
       DOS:  cpu time    0.0017: real time    0.0017
    CHARGE:  cpu time    0.0751: real time    0.0754
    MIXING:  cpu time    0.0004: real time    0.0004
    --------------------------------------------
      LOOP:  cpu time    0.9663: real time    0.9715

 eigenvalue-minimisations  :  1984
 total energy-change (2. order) : 0.5942099E-01  (-0.5941689E-02)
 number of electron      35.9999739 magnetization 
 augmentation part       20.4412808 magnetization 

 Broyden mixing:
  rms(total) = 0.85334E-01    rms(broyden)= 0.85333E-01
  rms(prec ) = 0.17011E+00
  weight for this iteration     100.00

 eigenvalues of (default mixing * dielectric matrix)
  average eigenvalue GAMMA=   1.3476
  0.6873  1.0339  2.3214

 Free energy of the ion-electron system (eV)
  ---------------------------------------------------
  alpha Z        PSCENC =       157.32409228
  Ewald energy   TEWEN  =     -3051.01979992
  -Hartree energ DENC   =      -530.69407529
  -exchange      EXHF   =         0.00000000
  -V(xc)+E(xc)   XCENC  =        63.66053469
  PAW double counting   =      3453.34786877    -3660.33952099
  entropy T*S    EENTRO =        -0.04336918
  eigenvalues    EBANDS =       287.01038870
  atomic energy  EATOM  =      3253.43093640
  Solvation  Ediel_sol  =         0.00000000
  ---------------------------------------------------
  free energy    TOTEN  =       -27.32294453 eV

  energy without entropy =      -27.27957535  energy(sigma->0) =      -27.30125994


--------------------------------------------------------------------------------------------------------




--------------------------------------- Iteration      1(   9)  ---------------------------------------


    POTLOK:  cpu time    0.0089: real time    0.0091
    SETDIJ:  cpu time    0.0039: real time    0.0039
     EDDAV:  cpu time    0.9780: real time    0.9830
       DOS:  cpu time    0.0016: real time    0.0016
    CHARGE:  cpu time    0.0759: real time    0.0762
    MIXING:  cpu time    0.0004: real time    0.0004
    --------------------------------------------
      LOOP:  cpu time    1.0687: real time    1.0741

 eigenvalue-minimisations  :  2240
 total energy-change (2. order) : 0.1402545E-01  (-0.1218131E-02)
 number of electron      35.9999738 magnetization 
 augmentation part       20.4998062 magnetization 

 Broyden mixing:
  rms(total) = 0.13603E-01    rms(broyden)= 0.13598E-01
  rms(prec ) = 0.16313E-01
  weight for this iteration     100.00

 eigenvalues of (default mixing * dielectric matrix)
  average eigenvalue GAMMA=   1.3399
  2.5059  0.6891  1.2710  0.8935

 Free energy of the ion-electron system (eV)
  ---------------------------------------------------
  alpha Z        PSCENC =       157.32409228
  Ewald energy   TEWEN  =     -3051.01979992
  -Hartree energ DENC   =      -525.68330239
  -exchange      EXHF   =         0.00000000
  -V(xc)+E(xc)   XCENC  =        63.42583134
  PAW double counting   =      3564.10754821    -3774.22702033
  entropy T*S    EENTRO =        -0.04349969
  eigenvalues    EBANDS =       285.37629504
  atomic energy  EATOM  =      3253.43093640
  Solvation  Ediel_sol  =         0.00000000
  ---------------------------------------------------
  free energy    TOTEN  =       -27.30891907 eV

  energy without entropy =      -27.26541938  energy(sigma->0) =      -27.28716923


--------------------------------------------------------------------------------------------------------




--------------------------------------- Iteration      1(  10)  ---------------------------------------


    POTLOK:  cpu time    0.0089: real time    0.0092
    SETDIJ:  cpu time    0.0041: real time    0.0041
     EDDAV:  cpu time    0.7948: real time    0.7988
       DOS:  cpu time    0.0016: real time    0.0016
    CHARGE:  cpu time    0.0752: real time    0.0755
    MIXING:  cpu time    0.0004: real time    0.0004
    --------------------------------------------
      LOOP:  cpu time    0.8852: real time    0.8897

 eigenvalue-minimisations  :  1768
 total energy-change (2. order) :-0.4466705E-04  (-0.7662140E-04)
 number of electron      35.9999738 magnetization 
 augmentation part       20.4936702 magnetization 

 Broyden mixing:
  rms(total) = 0.92493E-02    rms(broyden)= 0.92492E-02
  rms(prec ) = 0.96627E-02
  weight for this iteration     100.00

 eigenvalues of (default mixing * dielectric matrix)
  average eigenvalue GAMMA=   1.5306
  2.4677  2.4677  0.6901  1.0899  0.9376

 Free energy of the ion-electron system (eV)
  ---------------------------------------------------
  alpha Z        PSCENC =       157.32409228
  Ewald energy   TEWEN  =     -3051.01979992
  -Hartree energ DENC   =      -525.66704998
  -exchange      EXHF   =         0.00000000
  -V(xc)+E(xc)   XCENC  =        63.42625176
  PAW double counting   =      3565.22153767    -3775.52026793
  entropy T*S    EENTRO =        -0.04347319
  eigenvalues    EBANDS =       285.53880918
  atomic energy  EATOM  =      3253.43093640
  Solvation  Ediel_sol  =         0.00000000
  ---------------------------------------------------
  free energy    TOTEN  =       -27.30896374 eV

  energy without entropy =      -27.26549055  energy(sigma->0) =      -27.28722714


--------------------------------------------------------------------------------------------------------




--------------------------------------- Iteration      1(  11)  ---------------------------------------


    POTLOK:  cpu time    0.0088: real time    0.0090
    SETDIJ:  cpu time    0.0039: real time    0.0039
     EDDAV:  cpu time    0.9808: real time    0.9858
       DOS:  cpu time    0.0016: real time    0.0016
    CHARGE:  cpu time    0.0752: real time    0.0755
    MIXING:  cpu time    0.0005: real time    0.0005
    --------------------------------------------
      LOOP:  cpu time    1.0709: real time    1.0764

 eigenvalue-minimisations  :  2280
 total energy-change (2. order) : 0.9502719E-06  (-0.1686798E-05)
 number of electron      35.9999738 magnetization 
 augmentation part       20.4936513 magnetization 

 Broyden mixing:
  rms(total) = 0.66261E-03    rms(broyden)= 0.66177E-03
  rms(prec ) = 0.96522E-03
  weight for this iteration     100.00

 eigenvalues of (default mixing * dielectric matrix)
  average eigenvalue GAMMA=   1.4834
  2.5858  2.5858  0.6903  1.1859  0.8748  0.9777

 Free energy of the ion-electron system (eV)
  ---------------------------------------------------
  alpha Z        PSCENC =       157.32409228
  Ewald energy   TEWEN  =     -3051.01979992
  -Hartree energ DENC   =      -525.82253367
  -exchange      EXHF   =         0.00000000
  -V(xc)+E(xc)   XCENC  =        63.43345970
  PAW double counting   =      3558.56918519    -3768.71304971
  entropy T*S    EENTRO =        -0.04346515
  eigenvalues    EBANDS =       285.53221209
  atomic energy  EATOM  =      3253.43093640
  Solvation  Ediel_sol  =         0.00000000
  ---------------------------------------------------
  free energy    TOTEN  =       -27.30896279 eV

  energy without entropy =      -27.26549764  energy(sigma->0) =      -27.28723022


--------------------------------------------------------------------------------------------------------




--------------------------------------- Iteration      1(  12)  ---------------------------------------


    POTLOK:  cpu time    0.0089: real time    0.0091
    SETDIJ:  cpu time    0.0039: real time    0.0039
     EDDAV:  cpu time    0.5201: real time    0.5227
       DOS:  cpu time    0.0016: real time    0.0016
    CHARGE:  cpu time    0.0753: real time    0.0756
    MIXING:  cpu time    0.0005: real time    0.0005
    --------------------------------------------
      LOOP:  cpu time    0.6102: real time    0.6134

 eigenvalue-minimisations  :   888
 total energy-change (2. order) :-0.1740319E-05  (-0.4379009E-07)
 number of electron      35.9999738 magnetization 
 augmentation part       20.4939063 magnetization 

 Broyden mixing:
  rms(total) = 0.47281E-03    rms(broyden)= 0.47276E-03
  rms(prec ) = 0.54010E-03
  weight for this iteration     100.00

 eigenvalues of (default mixing * dielectric matrix)
  average eigenvalue GAMMA=   1.5121
  2.5174  2.5174  1.9100  0.6901  1.0352  0.9573  0.9573

 Free energy of the ion-electron system (eV)
  ---------------------------------------------------
  alpha Z        PSCENC =       157.32409228
  Ewald energy   TEWEN  =     -3051.01979992
  -Hartree energ DENC   =      -525.79418180
  -exchange      EXHF   =         0.00000000
  -V(xc)+E(xc)   XCENC  =        63.43215200
  PAW double counting   =      3559.32877768    -3769.49204460
  entropy T*S    EENTRO =        -0.04346574
  eigenvalues    EBANDS =       285.52456918
  atomic energy  EATOM  =      3253.43093640
  Solvation  Ediel_sol  =         0.00000000
  ---------------------------------------------------
  free energy    TOTEN  =       -27.30896453 eV

  energy without entropy =      -27.26549879  energy(sigma->0) =      -27.28723166


--------------------------------------------------------------------------------------------------------




--------------------------------------- Iteration      1(  13)  ---------------------------------------


    POTLOK:  cpu time    0.0089: real time    0.0092
    SETDIJ:  cpu time    0.0039: real time    0.0039
     EDDAV:  cpu time    0.5092: real time    0.5119
       DOS:  cpu time    0.0016: real time    0.0016
    --------------------------------------------
      LOOP:  cpu time    0.5237: real time    0.5265

 eigenvalue-minimisations  :   872
 total energy-change (2. order) :-0.8337238E-06  (-0.2285837E-07)
 number of electron      35.9999738 magnetization 
 augmentation part       20.4939063 magnetization 

 Free energy of the ion-electron system (eV)
  ---------------------------------------------------
  alpha Z        PSCENC =       157.32409228
  Ewald energy   TEWEN  =     -3051.01979992
  -Hartree energ DENC   =      -525.79373122
  -exchange      EXHF   =         0.00000000
  -V(xc)+E(xc)   XCENC  =        63.43213479
  PAW double counting   =      3559.87099722    -3770.04039363
  entropy T*S    EENTRO =        -0.04346416
  eigenvalues    EBANDS =       285.53026287
  atomic energy  EATOM  =      3253.43093640
  Solvation  Ediel_sol  =         0.00000000
  ---------------------------------------------------
  free energy    TOTEN  =       -27.30896536 eV

  energy without entropy =      -27.26550121  energy(sigma->0) =      -27.28723329


--------------------------------------------------------------------------------------------------------




 average (electrostatic) potential at core
  the test charge radii are     1.0452
  (the norm of the test charge is              1.0000)
       1 -78.3203       2 -78.3203       3 -78.3203       4 -78.3203
 
 
 
 E-fermi :  10.2072     XC(G=0): -13.4676     alpha+bet :-17.8600


 k-point     1 :       0.0000    0.0000    0.0000
  band No.  band energies     occupation 
      1       1.3960      2.00000
      2       5.6803      2.00000
      3       5.6803      2.00000
      4       5.6803      2.00000
      5       6.3018      2.00000
      6       6.3018      2.00000
      7       6.3018      2.00000
      8       8.3937      2.00000
      9       8.3937      2.00000
     10       8.3937      2.00000
     11       9.6787      2.00000
     12       9.6787      2.00000
     13      10.5129      0.00002
     14      10.5129      0.00002
     15      10.5129      0.00002
     16      10.7202      0.00000
     17      10.7202      0.00000
     18      10.7202      0.00000
     19      10.7202      0.00000
     20      10.7202      0.00000
     21      10.7202      0.00000
     22      12.9719      0.00000
     23      12.9719      0.00000
     24      12.9719      0.00000

 k-point     2 :       0.1111    0.0000    0.0000
  band No.  band energies     occupation 
      1       1.5609      2.00000
      2       5.6965      2.00000
      3       5.7729      2.00000
      4       5.7729      2.00000
      5       6.3586      2.00000
      6       6.3641      2.00000
      7       6.3641      2.00000
      8       8.3234      2.00000
      9       8.4461      2.00000
     10       8.4461      2.00000
     11       9.6142      2.00000
     12       9.7031      2.00000
     13      10.2453      0.58923
     14      10.2453      0.58923
     15      10.4284      0.00175
     16      10.4284      0.00175
     17      10.4868      0.00008
     18      10.6226      0.00000
     19      10.6226      0.00000
     20      10.7202      0.00000
     21      10.7202      0.00000
     22      12.2481      0.00000
     23      13.5757      0.00000
     24      13.5757      0.00000

 k-point     3 :       0.2222    0.0000    0.0000
  band No.  band energies     occupation 
      1       2.0460      2.00000
      2       5.6890      2.00000
      3       6.0283      2.00000
      4       6.0283      2.00000
      5       6.5238      2.00000
      6       6.5528      2.00000
      7       6.5528      2.00000
      8       8.1238      2.00000
      9       8.6008      2.00000
     10       8.6008      2.00000
     11       9.4103      2.00000
     12       9.4103      2.00000
     13       9.4342      2.00000
     14       9.7732      2.00000
     15      10.1920      1.16934
     16      10.1920      1.16934
     17      10.3562      0.03500
     18      10.3562      0.03500
     19      10.4118      0.00380
     20      10.7206      0.00000
     21      10.7206      0.00000
     22      10.8156      0.00000
     23      14.7963      0.00000
     24      14.7963      0.00000

 k-point     4 :       0.3333    0.0000    0.0000
  band No.  band energies     occupation 
      1       2.8165      2.00000
      2       5.4619      2.00000
      3       6.3677      2.00000
      4       6.3677      2.00000
      5       6.7832      2.00000
      6       6.8699      2.00000
      7       6.8699      2.00000
      8       7.8260      2.00000
      9       8.6008      2.00000
     10       8.6008      2.00000
     11       8.8509      2.00000
     12       8.8509      2.00000
     13       9.1845      2.00000
     14       9.5729      2.00000
     15       9.8709      2.00000
     16       9.8709      2.00000
     17       9.8814      2.00000
     18       9.9837      1.99843
     19       9.9837      1.99843
     20      10.2980      0.19875
     21      10.7209      0.00000
     22      10.7209      0.00000
     23      16.2425      0.00000
     24      16.2425      0.00000

 k-point     5 :       0.4444    0.0000    0.0000
  band No.  band energies     occupation 
      1       3.7913      2.00000
      2       4.7832      2.00000
      3       6.6335      2.00000
      4       6.6335      2.00000
      5       7.1112      2.00000
      6       7.3179      2.00000
      7       7.3179      2.00000
      8       7.4730      2.00000
      9       7.8967      2.00000
     10       7.8967      2.00000
     11       8.9658      2.00000
     12       8.9846      2.00000
     13       9.1830      2.00000
     14       9.1830      2.00000
     15       9.5738      2.00000
     16       9.5738      2.00000
     17       9.6146      2.00000
     18       9.6146      2.00000
     19      10.0153      1.99335
     20      10.1601      1.49442
     21      10.7213      0.00000
     22      10.7213      0.00000
     23      17.8253      0.00000
     24      17.8253      0.00000

 k-point     6 :       0.1111    0.1111    0.0000
  band No.  band energies     occupation 
      1       1.7241      2.00000
      2       5.7920      2.00000
      3       5.7920      2.00000
      4       5.8623      2.00000
      5       6.4189      2.00000
      6       6.4189      2.00000
      7       6.4231      2.00000
      8       8.2838      2.00000
      9       8.4707      2.00000
     10       8.4886      2.00000
     11       9.5970      2.00000
     12       9.6900      2.00000
     13       9.9573      1.99959
     14      10.0766      1.93521
     15      10.0766      1.93521
     16      10.3508      0.04221
     17      10.4322      0.00146
     18      10.4322      0.00146
     19      10.6223      0.00000
     20      10.6223      0.00000
     21      10.6589      0.00000
     22      12.8683      0.00000
     23      12.8683      0.00000
     24      14.0551      0.00000

 k-point     7 :       0.2222    0.1111    0.0000
  band No.  band energies     occupation 
      1       2.2036      2.00000
      2       5.7928      2.00000
      3       6.0564      2.00000
      4       6.1089      2.00000
      5       6.5786      2.00000
      6       6.5989      2.00000
      7       6.6015      2.00000
      8       8.1079      2.00000
      9       8.6098      2.00000
     10       8.6098      2.00000
     11       9.2471      2.00000
     12       9.2818      2.00000
     13       9.4491      2.00000
     14       9.6478      2.00000
     15       9.7620      2.00000
     16      10.1322      1.71062
     17      10.1993      1.08881
     18      10.3554      0.03609
     19      10.3571      0.03400
     20      10.6216      0.00000
     21      10.6254      0.00000
     22      11.5782      0.00000
     23      14.0006      0.00000
     24      15.1517      0.00000

 k-point     8 :       0.3333    0.1111    0.0000
  band No.  band energies     occupation 
      1       2.9647      2.00000
      2       5.5759      2.00000
      3       6.4119      2.00000
      4       6.4440      2.00000
      5       6.8285      2.00000
      6       6.8841      2.00000
      7       6.9076      2.00000
      8       7.8271      2.00000
      9       8.4663      2.00000
     10       8.5506      2.00000
     11       8.7615      2.00000
     12       8.8550      2.00000
     13       9.0649      2.00000
     14       9.2725      2.00000
     15       9.8335      2.00000
     16       9.8830      2.00000
     17       9.8963      1.99999
     18       9.9825      1.99851
     19      10.1326      1.70849
     20      10.6181      0.00000
     21      10.6204      0.00000
     22      10.6563      0.00000
     23      15.2664      0.00000
     24      16.5307      0.00000

 k-point     9 :       0.4444    0.1111    0.0000
  band No.  band energies     occupation 
      1       3.9269      2.00000
      2       4.9062      2.00000
      3       6.7008      2.00000
      4       6.7151      2.00000
      5       7.1437      2.00000
      6       7.2729      2.00000
      7       7.3381      2.00000
      8       7.4904      2.00000
      9       7.7996      2.00000
     10       7.8899      2.00000
     11       8.7284      2.00000
     12       8.7510      2.00000
     13       9.1846      2.00000
     14       9.3574      2.00000
     15       9.5734      2.00000
     16       9.6004      2.00000
     17       9.6205      2.00000
     18       9.7175      2.00000
     19      10.0693      1.94878
     20      10.2810      0.29668
     21      10.6174      0.00000
     22      10.6187      0.00000
     23      16.5947      0.00000
     24      17.9737      0.00000

 k-point    10 :       0.2222    0.2222    0.0000
  band No.  band energies     occupation 
      1       2.6660      2.00000
      2       6.0823      2.00000
      3       6.0823      2.00000
      4       6.3318      2.00000
      5       6.7355      2.00000
      6       6.7428      2.00000
      7       6.7428      2.00000
      8       8.0136      2.00000
      9       8.6384      2.00000
     10       8.6903      2.00000
     11       8.8561      2.00000
     12       8.8561      2.00000
     13       8.9092      2.00000
     14       9.3997      2.00000
     15       9.8303      2.00000
     16       9.9597      1.99954
     17      10.1479      1.59801
     18      10.1479      1.59801
     19      10.3529      0.03929
     20      10.3529      0.03929
     21      10.4787      0.00012
     22      12.5891      0.00000
     23      12.5891      0.00000
     24      16.0650      0.00000

 k-point    11 :       0.3333    0.2222    0.0000
  band No.  band energies     occupation 
      1       3.3975      2.00000
      2       5.8957      2.00000
      3       6.4845      2.00000
      4       6.6471      2.00000
      5       6.9356      2.00000
      6       6.9624      2.00000
      7       7.0158      2.00000
      8       7.8083      2.00000
      9       8.1630      2.00000
     10       8.3937      2.00000
     11       8.4647      2.00000
     12       8.6440      2.00000
     13       8.8933      2.00000
     14       9.2974      2.00000
     15       9.7163      2.00000
     16       9.8523      2.00000
     17       9.9604      1.99952
     18       9.9809      1.99862
     19      10.0387      1.98277
     20      10.3504      0.04277
     21      10.3954      0.00776
     22      11.4407      0.00000
     23      13.6526      0.00000
     24      17.3135      0.00000

 k-point    12 :       0.4444    0.2222    0.0000
  band No.  band energies     occupation 
      1       4.3181      2.00000
      2       5.2545      2.00000
      3       6.8504      2.00000
      4       6.9431      2.00000
      5       7.1528      2.00000
      6       7.2365      2.00000
      7       7.3938      2.00000
      8       7.5325      2.00000
      9       7.5835      2.00000
     10       7.8639      2.00000
     11       8.3641      2.00000
     12       8.5147      2.00000
     13       9.2006      2.00000
     14       9.3771      2.00000
     15       9.5344      2.00000
     16       9.5775      2.00000
     17       9.5895      2.00000
     18       9.6534      2.00000
     19      10.3348      0.07102
     20      10.3511      0.04186
     21      10.3615      0.02906
     22      10.7473      0.00000
     23      14.7784      0.00000
     24      16.0182      0.00000

 k-point    13 :       0.3333    0.3333    0.0000
  band No.  band energies     occupation 
      1       4.0750      2.00000
      2       6.3467      2.00000
      3       6.3467      2.00000
      4       6.8796      2.00000
      5       7.0571      2.00000
      6       7.1803      2.00000
      7       7.1803      2.00000
      8       7.7271      2.00000
      9       7.9567      2.00000
     10       7.9567      2.00000
     11       8.1312      2.00000
     12       8.5390      2.00000
     13       9.0212      2.00000
     14       9.2006      2.00000
     15       9.5325      2.00000
     16       9.6944      2.00000
     17       9.6944      2.00000
     18       9.9848      1.99833
     19       9.9848      1.99833
     20      10.1922      1.16705
     21      10.3558      0.03549
     22      12.2986      0.00000
     23      12.2986      0.00000
     24      15.7444      0.00000

 k-point    14 :       0.4444    0.3333    0.0000
  band No.  band energies     occupation 
      1       4.9144      2.00000
      2       5.7590      2.00000
      3       6.7755      2.00000
      4       6.9676      2.00000
      5       7.2727      2.00000
      6       7.3774      2.00000
      7       7.4695      2.00000
      8       7.5607      2.00000
      9       7.5732      2.00000
     10       7.8026      2.00000
     11       8.0745      2.00000
     12       8.3430      2.00000
     13       9.2195      2.00000
     14       9.2650      2.00000
     15       9.3877      2.00000
     16       9.4327      2.00000
     17       9.4501      2.00000
     18       9.6021      2.00000
     19      10.0066      1.99544
     20      10.0666      1.95314
     21      10.7878      0.00000
     22      11.3814      0.00000
     23      13.2459      0.00000
     24      14.3621      0.00000

 k-point    15 :       0.4444    0.4444    0.0000
  band No.  band energies     occupation 
      1       5.6184      2.00000
      2       6.2898      2.00000
      3       6.2898      2.00000
      4       6.7025      2.00000
      5       7.5411      2.00000
      6       7.5411      2.00000
      7       7.5807      2.00000
      8       7.6033      2.00000
      9       7.6928      2.00000
     10       7.8544      2.00000
     11       7.8544      2.00000
     12       8.1546      2.00000
     13       9.1185      2.00000
     14       9.2266      2.00000
     15       9.2341      2.00000
     16       9.2341      2.00000
     17       9.4176      2.00000
     18       9.6741      2.00000
     19       9.6741      2.00000
     20       9.8250      2.00000
     21      11.3632      0.00000
     22      12.1325      0.00000
     23      12.1325      0.00000
     24      13.0849      0.00000

 k-point    16 :       0.1111    0.1111    0.1111
  band No.  band energies     occupation 
      1       1.8852      2.00000
      2       5.8832      2.00000
      3       5.8832      2.00000
      4       5.8832      2.00000
      5       6.4762      2.00000
      6       6.4762      2.00000
      7       6.4762      2.00000
      8       8.2485      2.00000
      9       8.5075      2.00000
     10       8.5075      2.00000
     11       9.6336      2.00000
     12       9.6336      2.00000
     13       9.8071      2.00000
     14       9.8071      2.00000
     15       9.8071      2.00000
     16      10.2557      0.49256
     17      10.2557      0.49256
     18      10.2557      0.49256
     19      10.6434      0.00000
     20      10.6434      0.00000
     21      10.6434      0.00000
     22      13.3186      0.00000
     23      13.3186      0.00000
     24      13.3186      0.00000

 k-point    17 :       0.2222    0.1111    0.1111
  band No.  band energies     occupation 
      1       2.3582      2.00000
      2       5.8885      2.00000
      3       6.1353      2.00000
      4       6.1353      2.00000
      5       6.6312      2.00000
      6       6.6464      2.00000
      7       6.6464      2.00000
      8       8.0940      2.00000
      9       8.6105      2.00000
     10       8.6188      2.00000
     11       9.1377      2.00000
     12       9.1377      2.00000
     13       9.3836      2.00000
     14       9.4881      2.00000
     15       9.7375      2.00000
     16      10.0163      1.99306
     17      10.0624      1.95934
     18      10.0624      1.95934
     19      10.5751      0.00000
     20      10.6046      0.00000
     21      10.6046      0.00000
     22      11.9683      0.00000
     23      14.3027      0.00000
     24      14.3027      0.00000

 k-point    18 :       0.3333    0.1111    0.1111
  band No.  band energies     occupation 
      1       3.1081      2.00000
      2       5.6773      2.00000
      3       6.4819      2.00000
      4       6.4819      2.00000
      5       6.8747      2.00000
      6       6.9167      2.00000
      7       6.9167      2.00000
      8       7.8327      2.00000
      9       8.4397      2.00000
     10       8.4397      2.00000
     11       8.7292      2.00000
     12       8.8043      2.00000
     13       8.8583      2.00000
     14       9.3764      2.00000
     15       9.7015      2.00000
     16       9.8013      2.00000
     17       9.8013      2.00000
     18       9.8936      1.99999
     19      10.4462      0.00072
     20      10.5693      0.00000
     21      10.5693      0.00000
     22      10.8367      0.00000
     23      15.4749      0.00000
     24      15.4749      0.00000

 k-point    19 :       0.4444    0.1111    0.1111
  band No.  band energies     occupation 
      1       4.0546      2.00000
      2       5.0174      2.00000
      3       6.7819      2.00000
      4       6.7819      2.00000
      5       7.1803      2.00000
      6       7.2394      2.00000
      7       7.2394      2.00000
      8       7.5130      2.00000
      9       7.8592      2.00000
     10       7.8592      2.00000
     11       8.6032      2.00000
     12       8.6671      2.00000
     13       9.0591      2.00000
     14       9.3678      2.00000
     15       9.5710      2.00000
     16       9.5753      2.00000
     17       9.5753      2.00000
     18      10.0688      1.94956
     19      10.0804      1.92695
     20      10.2733      0.34990
     21      10.5541      0.00000
     22      10.5541      0.00000
     23      16.6529      0.00000
     24      16.6529      0.00000

 k-point    20 :       0.2222    0.2222    0.1111
  band No.  band energies     occupation 
      1       2.8111      2.00000
      2       6.1528      2.00000
      3       6.1528      2.00000
      4       6.3509      2.00000
      5       6.7801      2.00000
      6       6.7888      2.00000
      7       6.7888      2.00000
      8       8.0136      2.00000
      9       8.6368      2.00000
     10       8.6656      2.00000
     11       8.7804      2.00000
     12       8.7804      2.00000
     13       8.8041      2.00000
     14       9.4884      2.00000
     15       9.7889      2.00000
     16       9.8242      2.00000
     17       9.8503      2.00000
     18       9.8503      2.00000
     19      10.5352      0.00000
     20      10.5358      0.00000
     21      10.5358      0.00000
     22      12.8034      0.00000
     23      12.8034      0.00000
     24      15.0489      0.00000

 k-point    21 :       0.3333    0.2222    0.1111
  band No.  band energies     occupation 
      1       3.5256      2.00000
      2       5.9544      2.00000
      3       6.5167      2.00000
      4       6.6503      2.00000
      5       6.9688      2.00000
      6       7.0162      2.00000
      7       7.0313      2.00000
      8       7.8318      2.00000
      9       8.1929      2.00000
     10       8.3473      2.00000
     11       8.4262      2.00000
     12       8.6375      2.00000
     13       8.7901      2.00000
     14       9.4584      2.00000
     15       9.5490      2.00000
     16       9.6010      2.00000
     17       9.6627      2.00000
     18      10.0020      1.99628
     19      10.3802      0.01439
     20      10.4451      0.00076
     21      10.4477      0.00067
     22      11.5218      0.00000
     23      13.7776      0.00000
     24      15.9025      0.00000

 k-point    22 :       0.4444    0.2222    0.1111
  band No.  band energies     occupation 
      1       4.4203      2.00000
      2       5.3262      2.00000
      3       6.8738      2.00000
      4       6.9836      2.00000
      5       7.0611      2.00000
      6       7.2023      2.00000
      7       7.2932      2.00000
      8       7.5774      2.00000
      9       7.8206      2.00000
     10       7.9474      2.00000
     11       8.3475      2.00000
     12       8.5022      2.00000
     13       8.9792      2.00000
     14       9.2397      2.00000
     15       9.4376      2.00000
     16       9.4692      2.00000
     17       9.6716      2.00000
     18      10.0713      1.94523
     19      10.2890      0.24705
     20      10.3929      0.00861
     21      10.3944      0.00810
     22      10.7089      0.00000
     23      14.8162      0.00000
     24      15.8262      0.00000

 k-point    23 :       0.3333    0.3333    0.1111
  band No.  band energies     occupation 
      1       4.1742      2.00000
      2       6.3192      2.00000
      3       6.3192      2.00000
      4       6.7801      2.00000
      5       7.1328      2.00000
      6       7.2467      2.00000
      7       7.2467      2.00000
      8       7.7839      2.00000
      9       8.0264      2.00000
     10       8.0264      2.00000
     11       8.1829      2.00000
     12       8.5451      2.00000
     13       8.8187      2.00000
     14       9.3811      2.00000
     15       9.4108      2.00000
     16       9.4108      2.00000
     17       9.4516      2.00000
     18      10.2444      0.59845
     19      10.2444      0.59845
     20      10.3024      0.17796
     21      10.3077      0.15499
     22      12.3318      0.00000
     23      12.3318      0.00000
     24      15.4680      0.00000

 k-point    24 :       0.4444    0.3333    0.1111
  band No.  band energies     occupation 
      1       4.9674      2.00000
      2       5.7538      2.00000
      3       6.6358      2.00000
      4       6.7899      2.00000
      5       7.3392      2.00000
      6       7.4401      2.00000
      7       7.4825      2.00000
      8       7.6656      2.00000
      9       7.8335      2.00000
     10       7.9852      2.00000
     11       8.1168      2.00000
     12       8.3608      2.00000
     13       8.9185      2.00000
     14       9.1316      2.00000
     15       9.2349      2.00000
     16       9.2637      2.00000
     17       9.6111      2.00000
     18       9.9367      1.99987
     19      10.1656      1.44376
     20      10.1894      1.19786
     21      10.7312      0.00000
     22      11.3408      0.00000
     23      13.2372      0.00000
     24      14.2921      0.00000

 k-point    25 :       0.4444    0.4444    0.1111
  band No.  band energies     occupation 
      1       5.5950      2.00000
      2       6.1799      2.00000
      3       6.1799      2.00000
      4       6.5211      2.00000
      5       7.6518      2.00000
      6       7.7053      2.00000
      7       7.7053      2.00000
      8       7.7357      2.00000
      9       7.9413      2.00000
     10       7.9446      2.00000
     11       7.9446      2.00000
     12       8.1939      2.00000
     13       8.8972      2.00000
     14       9.0302      2.00000
     15       9.0302      2.00000
     16       9.0564      2.00000
     17       9.6637      2.00000
     18       9.8889      1.99999
     19       9.8889      1.99999
     20       9.9901      1.99786
     21      11.2997      0.00000
     22      12.0809      0.00000
     23      12.0809      0.00000
     24      13.0270      0.00000

 k-point    26 :       0.2222    0.2222    0.2222
  band No.  band energies     occupation 
      1       3.2343      2.00000
      2       6.3329      2.00000
      3       6.3329      2.00000
      4       6.3329      2.00000
      5       6.9316      2.00000
      6       6.9316      2.00000
      7       6.9316      2.00000
      8       7.9891      2.00000
      9       8.5468      2.00000
     10       8.5468      2.00000
     11       8.5468      2.00000
     12       8.6394      2.00000
     13       8.6394      2.00000
     14       9.5474      2.00000
     15       9.5474      2.00000
     16       9.5474      2.00000
     17       9.7009      2.00000
     18       9.7009      2.00000
     19      10.5887      0.00000
     20      10.5887      0.00000
     21      10.5887      0.00000
     22      13.3597      0.00000
     23      13.3597      0.00000
     24      13.3597      0.00000

 k-point    27 :       0.3333    0.2222    0.2222
  band No.  band energies     occupation 
      1       3.8939      2.00000
      2       6.0938      2.00000
      3       6.5463      2.00000
      4       6.5463      2.00000
      5       7.1419      2.00000
      6       7.1419      2.00000
      7       7.1886      2.00000
      8       7.8949      2.00000
      9       8.2532      2.00000
     10       8.2532      2.00000
     11       8.3139      2.00000
     12       8.6092      2.00000
     13       8.6718      2.00000
     14       9.2485      2.00000
[...]
      9       8.5267      2.00000
     10       8.5267      2.00000
     11       8.5341      2.00000
     12       8.7926      2.00000
     13       9.5512      2.00000
     14       9.6942      2.00000
     15       9.6942      2.00000
     16       9.7218      2.00000
     17      10.3780      2.00000
     18      10.6207      2.00000
     19      10.6207      2.00000
     20      10.7301      1.99909
     21      12.1352      0.00000
     22      12.9581      0.00000
     23      12.9581      0.00000
     24      13.9432      0.00000

 k-point    26 :       0.2222    0.2222    0.2222
  band No.  band energies     occupation 
      1       3.7255      2.00000
      2       6.8202      2.00000
      3       6.8202      2.00000
      4       6.8202      2.00000
      5       7.4466      2.00000
      6       7.4466      2.00000
      7       7.4466      2.00000
      8       8.5793      2.00000
      9       9.1865      2.00000
     10       9.1865      2.00000
     11       9.1865      2.00000
     12       9.2769      2.00000
     13       9.2769      2.00000
     14      10.2515      2.00000
     15      10.2515      2.00000
     16      10.2515      2.00000
     17      10.4181      2.00000
     18      10.4181      2.00000
     19      11.3764      0.00000
     20      11.3764      0.00000
     21      11.3764      0.00000
     22      14.2776      0.00000
     23      14.2776      0.00000
     24      14.2776      0.00000

 k-point    27 :       0.3333    0.2222    0.2222
  band No.  band energies     occupation 
      1       4.4003      2.00000
      2       6.6005      2.00000
      3       7.0490      2.00000
      4       7.0490      2.00000
      5       7.6708      2.00000
      6       7.6708      2.00000
      7       7.7220      2.00000
      8       8.4801      2.00000
      9       8.8698      2.00000
     10       8.8698      2.00000
     11       8.9350      2.00000
     12       9.2430      2.00000
     13       9.3114      2.00000
     14       9.9303      2.00000
     15      10.0381      2.00000
     16      10.0381      2.00000
     17      10.4284      2.00000
     18      10.6981      1.99984
     19      11.2943      0.00000
     20      11.2943      0.00000
     21      11.3390      0.00000
     22      12.7144      0.00000
     23      15.0084      0.00000
     24      15.0084      0.00000

 k-point    28 :       0.4444    0.2222    0.2222
  band No.  band energies     occupation 
      1       5.2233      2.00000
      2       6.0312      2.00000
      3       7.2313      2.00000
      4       7.2313      2.00000
      5       7.8059      2.00000
      6       7.8059      2.00000
      7       8.0329      2.00000
      8       8.2945      2.00000
      9       8.7016      2.00000
     10       8.7016      2.00000
     11       8.9081      2.00000
     12       9.0812      2.00000
     13       9.4342      2.00000
     14       9.6463      2.00000
     15       9.8918      2.00000
     16       9.8918      2.00000
     17      10.7753      1.99259
     18      10.9722      0.91446
     19      11.1973      0.00100
     20      11.2058      0.00065
     21      11.2058      0.00065
     22      11.5354      0.00000
     23      15.6208      0.00000
     24      15.6208      0.00000

 k-point    29 :       0.3333    0.3333    0.2222
  band No.  band energies     occupation 
      1       4.9635      2.00000
      2       6.7481      2.00000
      3       6.7481      2.00000
      4       7.0175      2.00000
      5       7.9087      2.00000
      6       8.0022      2.00000
      7       8.0022      2.00000
      8       8.5578      2.00000
      9       8.8092      2.00000
     10       8.8092      2.00000
     11       8.9168      2.00000
     12       9.1791      2.00000
     13       9.2563      2.00000
     14       9.7399      2.00000
     15       9.7399      2.00000
     16       9.7681      2.00000
     17      10.5103      2.00000
     18      10.9419      1.25252
     19      11.2424      0.00009
     20      11.2670      0.00002
     21      11.2670      0.00002
     22      13.3208      0.00000
     23      13.3208      0.00000
     24      15.1515      0.00000

 k-point    30 :       0.4444    0.3333    0.2222
  band No.  band energies     occupation 
      1       5.6209      2.00000
      2       6.2513      2.00000
      3       6.8644      2.00000
      4       6.9513      2.00000
      5       8.1150      2.00000
      6       8.1717      2.00000
      7       8.3609      2.00000
      8       8.5573      2.00000
      9       8.8413      2.00000
     10       8.8443      2.00000
     11       8.9286      2.00000
     12       9.0125      2.00000
     13       9.3105      2.00000
     14       9.4823      2.00000
     15       9.6162      2.00000
     16       9.6213      2.00000
     17      10.7291      1.99914
     18      11.0784      0.10760
     19      11.1477      0.00961
     20      11.1505      0.00859
     21      11.3545      0.00000
     22      12.0666      0.00000
     23      14.0406      0.00000
     24      14.7573      0.00000

 k-point    31 :       0.4444    0.4444    0.2222
  band No.  band energies     occupation 
      1       6.0529      2.00000
      2       6.4702      2.00000
      3       6.4702      2.00000
      4       6.6963      2.00000
      5       8.4191      2.00000
      6       8.5650      2.00000
      7       8.5650      2.00000
      8       8.7941      2.00000
      9       8.9062      2.00000
     10       8.9140      2.00000
     11       8.9140      2.00000
     12       9.0300      2.00000
     13       9.2670      2.00000
     14       9.3906      2.00000
     15       9.3906      2.00000
     16       9.4238      2.00000
     17      10.7380      1.99865
     18      10.9548      1.11056
     19      10.9548      1.11056
     20      11.0094      0.52705
     21      11.9222      0.00000
     22      12.7616      0.00000
     23      12.7616      0.00000
     24      13.6573      0.00000

 k-point    32 :       0.3333    0.3333    0.3333
  band No.  band energies     occupation 
      1       5.3539      2.00000
      2       6.6453      2.00000
      3       6.6453      2.00000
      4       6.6453      2.00000
      5       8.2790      2.00000
      6       8.2790      2.00000
      7       8.2790      2.00000
      8       8.8707      2.00000
      9       9.0486      2.00000
     10       9.0486      2.00000
     11       9.0486      2.00000
     12       9.1435      2.00000
     13       9.1435      2.00000
     14       9.4779      2.00000
     15       9.4779      2.00000
     16       9.4779      2.00000
     17      10.8495      1.89664
     18      10.8495      1.89664
     19      11.3298      0.00000
     20      11.3298      0.00000
     21      11.3298      0.00000
     22      13.4912      0.00000
     23      13.4912      0.00000
     24      13.4912      0.00000

 k-point    33 :       0.4444    0.3333    0.3333
  band No.  band energies     occupation 
      1       5.7919      2.00000
      2       6.2294      2.00000
      3       6.5814      2.00000
      4       6.5814      2.00000
      5       8.4498      2.00000
      6       8.4498      2.00000
      7       8.6809      2.00000
      8       8.9886      2.00000
      9       9.1272      2.00000
     10       9.1446      2.00000
     11       9.1447      2.00000
     12       9.2604      2.00000
     13       9.2679      2.00000
     14       9.2679      2.00000
     15       9.3485      2.00000
     16       9.3485      2.00000
     17      11.1215      0.02652
     18      11.1264      0.02215
     19      11.2590      0.00003
     20      11.2590      0.00003
     21      11.2894      0.00000
     22      12.0585      0.00000
     23      13.6375      0.00000
     24      13.6375      0.00000

 k-point    34 :       0.4444    0.4444    0.3333
  band No.  band energies     occupation 
      1       6.0013      2.00000
      2       6.2614      2.00000
      3       6.2614      2.00000
      4       6.3760      2.00000
      5       8.6803      2.00000
      6       8.7674      2.00000
      7       8.7674      2.00000
      8       8.9684      2.00000
      9       9.0688      2.00000
     10       9.1475      2.00000
     11       9.1475      2.00000
     12       9.1739      2.00000
     13       9.5679      2.00000
     14       9.5679      2.00000
     15       9.5875      2.00000
     16       9.6069      2.00000
     17      11.0420      0.27411
     18      11.2111      0.00049
     19      11.2111      0.00049
     20      11.2187      0.00033
     21      11.5666      0.00000
     22      12.3918      0.00000
     23      12.3918      0.00000
     24      12.9790      0.00000

 k-point    35 :       0.4444    0.4444    0.4444
  band No.  band energies     occupation 
      1       6.0234      2.00000
      2       6.1463      2.00000
      3       6.1463      2.00000
      4       6.1463      2.00000
      5       8.8870      2.00000
      6       8.8870      2.00000
      7       8.8870      2.00000
      8       8.9836      2.00000
      9       8.9836      2.00000
     10       9.0202      2.00000
     11       9.0202      2.00000
     12       9.0202      2.00000
     13      10.2055      2.00000
     14      10.2055      2.00000
     15      10.2055      2.00000
     16      10.4072      2.00000
     17      11.2402      0.00010
     18      11.2402      0.00010
     19      11.3017      0.00000
     20      11.3017      0.00000
     21      11.3017      0.00000
     22      11.9634      0.00000
     23      11.9634      0.00000
     24      11.9634      0.00000


--------------------------------------------------------------------------------------------------------


 soft charge-density along one line, spin component           1
         0         1         2         3         4         5         6         7         8         9
 total charge-density along one line
 
 pseudopotential strength for first ion, spin component:           1
  0.455   0.000  -0.000  -0.000  -0.000  -0.221   0.000  -0.000
  0.000   0.455  -0.000   0.000   0.000   0.000  -0.221  -0.000
 -0.000  -0.000   0.504   0.000  -0.000  -0.000  -0.000  -0.174
 -0.000   0.000   0.000   0.455   0.000  -0.000   0.000   0.000
 -0.000   0.000  -0.000   0.000   0.504  -0.000   0.000   0.000
 -0.221   0.000  -0.000  -0.000  -0.000  -0.837   0.000  -0.000
  0.000  -0.221  -0.000   0.000   0.000   0.000  -0.837  -0.000
 -0.000  -0.000  -0.174   0.000   0.000  -0.000  -0.000  -0.791
 -0.000   0.000   0.000  -0.221   0.000  -0.000   0.000   0.000
 -0.000   0.000   0.000   0.000  -0.174  -0.000   0.000   0.000
 -0.000   0.000   0.000  -0.000   0.000  -0.000   0.000   0.000
 -0.000   0.000   0.000  -0.000  -0.000  -0.000   0.000   0.000
 -0.000  -0.000   0.000  -0.000   0.000  -0.000  -0.000   0.000
 -0.000  -0.000  -0.000  -0.000   0.000  -0.000  -0.000  -0.000
 -0.000  -0.000   0.000  -0.000  -0.000  -0.000  -0.000   0.000
 -0.000  -0.000   0.000  -0.000   0.000  -0.000  -0.000   0.000
 -0.000  -0.000  -0.000  -0.000   0.000  -0.000  -0.000  -0.000
 -0.000  -0.000   0.000  -0.000  -0.000  -0.000  -0.000   0.000
 total augmentation occupancy for first ion, spin component:           1
  1.903   0.000  -0.000  -0.000   0.000  -0.950   0.000  -0.000   0.000  -0.000   0.000   0.000   0.000   0.000  -0.000   0.000
  0.000   1.903   0.000   0.000  -0.000  -0.000  -0.950  -0.000  -0.000  -0.000   0.000  -0.000   0.000  -0.000  -0.000   0.000
 -0.000  -0.000   3.221  -0.000   0.000  -0.000   0.000  -1.668   0.000  -0.000  -0.000   0.000   0.000   0.000   0.000   0.000
 -0.000   0.000  -0.000   1.903   0.000  -0.000  -0.000  -0.000  -0.950   0.000   0.000  -0.000   0.000  -0.000   0.000   0.000
 -0.000  -0.000   0.000   0.000   3.221   0.000   0.000   0.000  -0.000  -1.668  -0.000  -0.000  -0.000   0.000  -0.000   0.000
 -0.950   0.000  -0.000  -0.000   0.000   1.496  -0.000   0.000  -0.000   0.000   0.000  -0.000   0.000  -0.000   0.000  -0.000
  0.000  -0.950   0.000  -0.000   0.000  -0.000   1.496   0.000  -0.000  -0.000  -0.000  -0.000  -0.000  -0.000  -0.000   0.000
  0.000  -0.000  -1.668  -0.000   0.000   0.000  -0.000   1.767   0.000   0.000   0.000   0.000  -0.000  -0.000   0.000   0.000
  0.000   0.000   0.000  -0.950  -0.000  -0.000  -0.000   0.000   1.496   0.000   0.000  -0.000   0.000   0.000  -0.000   0.000
 -0.000   0.000  -0.000   0.000  -1.668  -0.000  -0.000  -0.000   0.000   1.767   0.000  -0.000  -0.000  -0.000   0.000   0.000
  0.000   0.000  -0.000   0.000  -0.000   0.000   0.000   0.000   0.000   0.000   2.402  -0.283   0.000   0.000   0.000   0.000
 -0.000  -0.000   0.000  -0.000   0.000   0.000   0.000  -0.000  -0.000  -0.000  -0.283   0.040   0.000   0.000   0.000   0.000
  0.000   0.000   0.000   0.000   0.000   0.000  -0.000  -0.000   0.000   0.000   0.000   0.000   0.340  -0.000   0.000  -0.032
  0.000  -0.000   0.000  -0.000   0.000  -0.000  -0.000   0.000   0.000   0.000   0.000   0.000   0.000   0.340   0.000  -0.000
 -0.000  -0.000   0.000   0.000  -0.000   0.000  -0.000  -0.000  -0.000  -0.000   0.000   0.000   0.000  -0.000   0.340   0.000
  0.000   0.000  -0.000   0.000   0.000  -0.000   0.000   0.000   0.000   0.000   0.000   0.000  -0.032  -0.000   0.000   0.003
 -0.000   0.000   0.000   0.000   0.000  -0.000   0.000   0.000   0.000   0.000   0.000   0.000   0.000  -0.032   0.000  -0.000
 -0.000   0.000  -0.000   0.000  -0.000  -0.000   0.000   0.000   0.000  -0.000   0.000   0.000  -0.000  -0.000  -0.032   0.000


------------------------ aborting loop because EDIFF is reached ----------------------------------------


    CHARGE:  cpu time    0.0750: real time    0.0753
    FORLOC:  cpu time    0.0002: real time    0.0002
    FORNL :  cpu time    0.0618: real time    0.0620
    STRESS:  cpu time    0.1344: real time    0.1349
    FORCOR:  cpu time    0.0081: real time    0.0082
    FORHAR:  cpu time    0.0022: real time    0.0023
    MIXING:  cpu time    0.0004: real time    0.0004
    OFIELD:  cpu time    0.0000: real time    0.0000

  FORCE on cell =-STRESS in cart. coord.  units (eV):
  Direction    XX          YY          ZZ          XY          YZ          ZX
  --------------------------------------------------------------------------------------
  Alpha Z   165.23214   165.23214   165.23214
  Ewald   -1033.76953 -1033.76953 -1033.76953     0.00000    -0.00000     0.00000
  Hartree   168.33051   168.33051   168.33051    -0.00000    -0.00000    -0.00000
  E(xc)    -183.95586  -183.95586  -183.95586    -0.00000    -0.00000     0.00000
  Local     -23.28939   -23.28939   -23.28939     0.00000     0.00000     0.00000
  n-local   -17.68882   -23.59412   -16.16029     5.55678     2.93105     3.13741
  augment   618.76183   618.76183   618.76183     0.00000     0.00000     0.00000
  Kinetic   320.22087   304.49782   298.71240     3.72695     6.52797     4.51638
  Fock        0.00000     0.00000     0.00000     0.00000     0.00000     0.00000
  -------------------------------------------------------------------------------------
  Total      -0.02767    -0.02767    -0.02767     0.00000     0.00000    -0.00000
  in kB      -1.08091    -1.08091    -1.08091     0.00000     0.00000    -0.00000
  external pressure =       -1.08 kB  Pullay stress =        0.00 kB


 VOLUME and BASIS-vectors are now :
 -----------------------------------------------------------------------------
  energy-cutoff  :      400.00
  volume of cell :       41.02
      direct lattice vectors                 reciprocal lattice vectors
     3.448677447  0.000000000  0.000000000     0.289966231  0.000000000 -0.000000000
     0.000000000  3.448677447  0.000000000    -0.000000000  0.289966231  0.000000000
     0.000000000 -0.000000000  3.448677447    -0.000000000 -0.000000000  0.289966231

  length of vectors
     3.448677447  3.448677447  3.448677447     0.289966231  0.289966231  0.289966231


 FORCES acting on ions
    electron-ion (+dipol)            ewald-force                    non-local-force                 convergence-correction
 -----------------------------------------------------------------------------------------------
   -.118E-05 -.118E-05 -.118E-05   0.207E-05 0.207E-05 0.207E-05   -.103E-24 -.104E-24 -.207E-24   -.333E-09 -.333E-09 -.333E-09
   -.118E-05 0.133E-05 0.133E-05   0.207E-05 -.207E-05 -.207E-05   -.104E-24 -.103E-24 -.620E-24   -.333E-09 0.392E-09 0.392E-09
   0.133E-05 -.118E-05 0.133E-05   -.207E-05 0.207E-05 -.207E-05   -.182E-27 0.546E-27 0.207E-24   0.392E-09 -.333E-09 0.392E-09
   0.133E-05 0.133E-05 -.118E-05   -.207E-05 -.207E-05 0.207E-05   0.168E-27 -.503E-27 -.207E-24   0.392E-09 0.392E-09 -.333E-09
 -----------------------------------------------------------------------------------------------
   0.304E-06 0.304E-06 0.304E-06   0.144E-14 0.391E-16 0.590E-16   -.207E-24 -.207E-24 -.827E-24   0.119E-09 0.119E-09 0.119E-09
 
 
 POSITION                                       TOTAL-FORCE (eV/Angst)
 -----------------------------------------------------------------------------------
     -0.00000      0.00000     -0.00000        -0.000000      0.000000     -0.000000
      0.00000      1.72434      1.72434         0.000000     -0.000000      0.000000
      1.72434     -0.00000      1.72434         0.000000     -0.000000      0.000000
      1.72434      1.72434      0.00000        -0.000000      0.000000     -0.000000
 -----------------------------------------------------------------------------------
    total drift:                                0.000000      0.000000      0.000000


--------------------------------------------------------------------------------------------------------



  FREE ENERGIE OF THE ION-ELECTRON SYSTEM (eV)
  ---------------------------------------------------
  free  energy   TOTEN  =       -27.38643852 eV

  energy  without entropy=      -27.34658322  energy(sigma->0) =      -27.36651087
 
 d Force = 0.0000000E+00[ 0.000E+00, 0.000E+00]  d Energy = 0.1356687E+00-0.136E+00
 d Force = 0.0000000E+00[ 0.000E+00, 0.000E+00]  d Ewald  =-0.6589474E+02 0.659E+02


--------------------------------------------------------------------------------------------------------


    POTLOK:  cpu time    0.0128: real time    0.0129


--------------------------------------------------------------------------------------------------------


 stress matrix after NEB project (eV)
     -0.02767     -0.00000     -0.00000
      0.00000     -0.02767     -0.00000
      0.00000      0.00000     -0.02767
  FORCES: max atom, RMS     0.000000    0.000000
  FORCE total and by dimension    0.000000    0.000000
  Stress total and by dimension    0.047929    0.027672


--------------------------------------------------------------------------------------------------------


  
 reached required accuracy - stopping structural energy minimisation
     LOOP+:  cpu time    6.5104: real time    6.5626
    4ORBIT:  cpu time    0.0000: real time    0.0000

 total amount of memory used by VASP MPI-rank0    32245. kBytes
=======================================================================

   base      :      30000. kBytes
   nonl-proj :       1041. kBytes
   fftplans  :        178. kBytes
   grid      :        259. kBytes
   one-center:         15. kBytes
   wavefun   :        752. kBytes
 
  
  
 General timing and accounting informations for this job:
 ========================================================
  
                  Total CPU time used (sec):       27.247
                            User time (sec):       26.806
                          System time (sec):        0.441
                         Elapsed time (sec):       27.571
  
                   Maximum memory used (kb):       45612.
                   Average memory used (kb):           0.
  
                          Minor page faults:        11169
                          Major page faults:           16
                 Voluntary context switches:          782
