 vasp.5.4.4.18Apr17-6-g9f103f2a35 (build Apr 13 2025 12:23:30) complex          
  
 executed on             LinuxIFC date 2025.04.17  14:57:41
 running on   16 total cores
 distrk:  each k-point on   16 cores,    1 groups
 distr:  one band on NCORES_PER_BAND=   4 cores,    4 groups


--------------------------------------------------------------------------------------------------------


 INCAR:
 POTCAR:    PAW_PBE Co 02Aug2007                  
 POTCAR:    PAW_PBE O 08Apr2002                   
 POTCAR:    PAW_PBE H 15Jun2001                   
 POTCAR:    PAW_PBE Co 02Aug2007                  
   SHA256 =  0e690c60710354995174544f52f9f2c30879afabeffe3b3fbd4001cb294e56d4 Co
   COPYR  = (c) Copyright 02Aug2007 Georg Kresse                                
   COPYR  = This file is part of the software VASP. Any use, copying, and all ot
   COPYR  = If you do not have a valid VASP license, you may not use, copy or di
   VRHFIN =Co: d8 s1                                                            
   LEXCH  = PE                                                                  
   EATOM  =   813.3670 eV,   59.7808 Ry                                         
                                                                                
   TITEL  = PAW_PBE Co 02Aug2007                                                
   LULTRA =        F    use ultrasoft PP ?                                      
   IUNSCR =        1    unscreen: 0-lin 1-nonlin 2-no                           
   RPACOR =    2.000    partial core radius                                     
   POMASS =   58.933; ZVAL   =    9.000    mass and valenz                      
   RCORE  =    2.300    outmost cutoff radius                                   
   RWIGS  =    2.460; RWIGS  =    1.302    wigner-seitz radius (au A)           
   ENMAX  =  267.968; ENMIN  =  200.976 eV                                      
   RCLOC  =    1.203    cutoff for local pot                                    
   LCOR   =        T    correct aug charges                                     
   LPAW   =        T    paw PP                                                  
   EAUG   =  477.818                                                            
   DEXC   =    0.000                                                            
   RMAX   =    2.360    core radius for proj-oper                               
   RAUG   =    1.300    factor for augmentation sphere                          
   RDEP   =    2.393    radius for radial grids                                 
   RDEPT  =    1.864    core radius for aug-charge                              
                                                                                
   Atomic configuration                                                         
    9 entries                                                                   
     n  l   j            E        occ.                                          
     1  0  0.50     -7587.6674   2.0000                                         
     2  0  0.50      -893.6084   2.0000                                         
     2  1  1.50      -764.5805   6.0000                                         
     3  0  0.50       -97.5973   2.0000                                         
     3  1  1.50       -60.9648   6.0000                                         
     3  2  2.50        -4.2382   8.0000                                         
     4  0  0.50        -4.3746   1.0000                                         
     4  1  1.50        -4.0817   0.0000                                         
     4  3  2.50        -1.3606   0.0000                                         
   Description                                                                  
     l       E           TYP  RCUT    TYP  RCUT                                 
     2     -4.2382362     23  2.300                                             
     2     -5.5988188     23  2.300                                             
     0     -4.3745797     23  2.300                                             
     0      5.7660125     23  2.300                                             
     1     -2.7211652     23  2.300                                             
     1     16.9860234     23  2.300                                             
  local pseudopotential read in
  partial core-charges read in
  partial kinetic energy density read in
  atomic valenz-charges read in
  non local Contribution for L=           2  read in
    real space projection operators read in
  non local Contribution for L=           2  read in
    real space projection operators read in
  non local Contribution for L=           0  read in
    real space projection operators read in
  non local Contribution for L=           0  read in
    real space projection operators read in
  non local Contribution for L=           1  read in
    real space projection operators read in
  non local Contribution for L=           1  read in
    real space projection operators read in
    PAW grid and wavefunctions read in
 
   number of l-projection  operators is LMAX  =           6
   number of lm-projection operators is LMMAX =          18
 
 POTCAR:    PAW_PBE O 08Apr2002                   
   SHA256 =  818f92134a0a090dccd8ba1447fa70422a3b330e708bb4f08108d8ae51209ddf O/
   COPYR  = (c) Copyright 08Apr2002 Georg Kresse                                
   COPYR  = This file is part of the software VASP. Any use, copying, and all ot
   COPYR  = If you do not have a valid VASP license, you may not use, copy or di
   VRHFIN =O: s2p4                                                              
   LEXCH  = PE                                                                  
   EATOM  =   432.3788 eV,   31.7789 Ry                                         
                                                                                
   TITEL  = PAW_PBE O 08Apr2002                                                 
   LULTRA =        F    use ultrasoft PP ?                                      
   IUNSCR =        1    unscreen: 0-lin 1-nonlin 2-no                           
   RPACOR =    1.200    partial core radius                                     
   POMASS =   16.000; ZVAL   =    6.000    mass and valenz                      
   RCORE  =    1.520    outmost cutoff radius                                   
   RWIGS  =    1.550; RWIGS  =    0.820    wigner-seitz radius (au A)           
   ENMAX  =  400.000; ENMIN  =  300.000 eV                                      
   ICORE  =        2    local potential                                         
   LCOR   =        T    correct aug charges                                     
   LPAW   =        T    paw PP                                                  
   EAUG   =  605.392                                                            
   DEXC   =    0.000                                                            
   RMAX   =    1.553    core radius for proj-oper                               
   RAUG   =    1.300    factor for augmentation sphere                          
   RDEP   =    1.550    radius for radial grids                                 
   RDEPT  =    1.329    core radius for aug-charge                              
                                                                                
   Atomic configuration                                                         
    4 entries                                                                   
     n  l   j            E        occ.                                          
     1  0  0.50      -514.6923   2.0000                                         
     2  0  0.50       -23.9615   2.0000                                         
     2  1  0.50        -9.0305   4.0000                                         
     3  2  1.50        -9.5241   0.0000                                         
   Description                                                                  
     l       E           TYP  RCUT    TYP  RCUT                                 
     0    -23.9615318     23  1.200                                             
     0     -9.5240782     23  1.200                                             
     1     -9.0304911     23  1.520                                             
     1      8.1634956     23  1.520                                             
     2     -9.5240782      7  1.500                                             
  local pseudopotential read in
  partial core-charges read in
  partial kinetic energy density read in
  kinetic energy density of atom read in
  atomic valenz-charges read in
  non local Contribution for L=           0  read in
    real space projection operators read in
  non local Contribution for L=           0  read in
    real space projection operators read in
  non local Contribution for L=           1  read in
    real space projection operators read in
  non local Contribution for L=           1  read in
    real space projection operators read in
    PAW grid and wavefunctions read in
 
   number of l-projection  operators is LMAX  =           4
   number of lm-projection operators is LMMAX =           8
 
 POTCAR:    PAW_PBE H 15Jun2001                   
   SHA256 =  030f79b5d3ab3cf0e668861823c8fb652ff669f3e15e46930bd03bfd63a607b6 H/
   COPYR  = (c) Copyright 15Jun2001 Georg Kresse                                
   COPYR  = This file is part of the software VASP. Any use, copying, and all ot
   COPYR  = If you do not have a valid VASP license, you may not use, copy or di
   VRHFIN =H: ultrasoft test                                                    
   LEXCH  = PE                                                                  
   EATOM  =    12.4884 eV,    0.9179 Ry                                         
                                                                                
   TITEL  = PAW_PBE H 15Jun2001                                                 
   LULTRA =        F    use ultrasoft PP ?                                      
   IUNSCR =        0    unscreen: 0-lin 1-nonlin 2-no                           
   RPACOR =    0.000    partial core radius                                     
   POMASS =    1.000; ZVAL   =    1.000    mass and valenz                      
   RCORE  =    1.100    outmost cutoff radius                                   
   RWIGS  =    0.700; RWIGS  =    0.370    wigner-seitz radius (au A)           
   ENMAX  =  250.000; ENMIN  =  200.000 eV                                      
   RCLOC  =    0.701    cutoff for local pot                                    
   LCOR   =        T    correct aug charges                                     
   LPAW   =        T    paw PP                                                  
   EAUG   =  400.000                                                            
   RMAX   =    1.123    core radius for proj-oper                               
   RAUG   =    1.200    factor for augmentation sphere                          
   RDEP   =    1.112    radius for radial grids                                 
   RDEPT  =    0.926    core radius for aug-charge                              
                                                                                
   Atomic configuration                                                         
    2 entries                                                                   
     n  l   j            E        occ.                                          
     1  0  0.50        -6.4927   1.0000                                         
     2  1  0.50        -3.4015   0.0000                                         
   Description                                                                  
     l       E           TYP  RCUT    TYP  RCUT                                 
     0     -6.4927494     23  1.100                                             
     0      6.8029130     23  1.100                                             
     1     -4.0817478     23  1.100                                             
  local pseudopotential read in
  atomic valenz-charges read in
  non local Contribution for L=           0  read in
    real space projection operators read in
  non local Contribution for L=           0  read in
    real space projection operators read in
  non local Contribution for L=           1  read in
    real space projection operators read in
    PAW grid and wavefunctions read in
 
   number of l-projection  operators is LMAX  =           3
   number of lm-projection operators is LMMAX =           5
 
  PAW_PBE Co 02Aug2007                  :
 energy of atom  1       EATOM= -813.3670
 kinetic energy error for atom=    0.0093 (will be added to EATOM!!)
  PAW_PBE O 08Apr2002                   :
 energy of atom  2       EATOM= -432.3788
 kinetic energy error for atom=    0.1156 (will be added to EATOM!!)
  PAW_PBE H 15Jun2001                   :
 energy of atom  3       EATOM=  -12.4884
 kinetic energy error for atom=    0.0098 (will be added to EATOM!!)
 
 
 POSCAR: Co O  H                                 
  positions in cartesian coordinates
  No initial velocities read in
 exchange correlation table for  LEXCH =        8
   RHO(1)=    0.500       N(1)  =     2000
   RHO(2)=  100.500       N(2)  =     4000

 VTST: version 3.2, (02/03/18)

 CHAIN: initializing optimizer
 
 OPT: Using VASP Conjugate-Gradient optimizer
 CHAIN: Read ICHAIN            0
 
 POSCAR: Co O  H                                 
  positions in cartesian coordinates
  No initial velocities read in
 


--------------------------------------------------------------------------------------------------------


 ion  position               nearest neighbor table
   1  0.000  0.000  0.000-   2 2.13   3 2.13   3 2.13   3 2.13   2 2.13   2 2.13
   2  0.667  0.333  0.781-   4 0.97   1 2.13   1 2.13   1 2.13
   3  0.333  0.667  0.219-   5 0.97   1 2.13   1 2.13   1 2.13
   4  0.667  0.333  0.578-   2 0.97
   5  0.333  0.667  0.422-   3 0.97
 
  LATTYP: Found a base centered monoclinic cell.
 ALAT       =    13.5945525222
 B/A-ratio  =     0.4090843502
 C/A-ratio  =     0.5895941938
 COS(beta)  =    -0.9162573492
  
  Lattice vectors:
  
 A1 = (  -4.8162752708,   2.7806565924,   4.7965031623)
 A2 = (  -4.8162480225,  -2.7806620923,   4.7965335458)
 A3 = (   6.4216669837,  -0.0000051160,  -4.7965335458)


Analysis of symmetry for initial positions (statically):
=====================================================================
 Subroutine PRICEL returns:
 Original cell was already a primitive cell.
 

 Routine SETGRP: Setting up the symmetry group for a 
 base centered monoclinic supercell.


 Subroutine GETGRP returns: Found  2 space group operations
 (whereof  2 operations were pure point group operations)
 out of a pool of  4 trial point group operations.


The static configuration has the point symmetry S_2 .


Analysis of symmetry for dynamics (positions and initial velocities):
=====================================================================
 Subroutine PRICEL returns:
 Original cell was already a primitive cell.
 

 Routine SETGRP: Setting up the symmetry group for a 
 base centered monoclinic supercell.


 Subroutine GETGRP returns: Found  2 space group operations
 (whereof  2 operations were pure point group operations)
 out of a pool of  4 trial point group operations.


The dynamic configuration has the point symmetry S_2 .


 Subroutine INISYM returns: Found  2 space group operations
 (whereof  2 operations are pure point group operations),
 and found     1 'primitive' translations

 
 
 KPOINTS: KPOINTS created by Atomic Simulation Env

Automatic generation of k-mesh.
Space group operators:
 irot       det(A)        alpha          n_x          n_y          n_z        tau_x        tau_y        tau_z
    1     1.000000     0.000001     1.000000     0.000000     0.000000     0.000000     0.000000     0.000000
    2    -1.000000     0.000001     1.000000     0.000000     0.000000     0.000000     0.000000     0.000000
 
 Subroutine IBZKPT returns following result:
 ===========================================
 
 Found    352 irreducible k-points:
 
 Following reciprocal coordinates:
            Coordinates               Weight
  0.000000  0.000000  0.000000      1.000000
  0.100000  0.000000  0.000000      2.000000
  0.200000 -0.000000  0.000000      2.000000
  0.300000  0.000000  0.000000      2.000000
  0.400000  0.000000  0.000000      2.000000
  0.500000  0.000000  0.000000      1.000000
 -0.000000  0.100000  0.000000      2.000000
  0.100000  0.100000  0.000000      2.000000
  0.200000  0.100000  0.000000      2.000000
  0.300000  0.100000  0.000000      2.000000
  0.400000  0.100000  0.000000      2.000000
  0.500000  0.100000  0.000000      2.000000
 -0.400000  0.100000 -0.000000      2.000000
 -0.300000  0.100000 -0.000000      2.000000
 -0.200000  0.100000 -0.000000      2.000000
 -0.100000  0.100000 -0.000000      2.000000
 -0.000000  0.200000  0.000000      2.000000
  0.100000  0.200000  0.000000      2.000000
  0.200000  0.200000  0.000000      2.000000
  0.300000  0.200000 -0.000000      2.000000
  0.400000  0.200000  0.000000      2.000000
  0.500000  0.200000  0.000000      2.000000
 -0.400000  0.200000 -0.000000      2.000000
 -0.300000  0.200000 -0.000000      2.000000
 -0.200000  0.200000 -0.000000      2.000000
 -0.100000  0.200000 -0.000000      2.000000
 -0.000000  0.300000  0.000000      2.000000
  0.100000  0.300000  0.000000      2.000000
  0.200000  0.300000  0.000000      2.000000
  0.300000  0.300000  0.000000      2.000000
  0.400000  0.300000  0.000000      2.000000
  0.500000  0.300000  0.000000      2.000000
 -0.400000  0.300000 -0.000000      2.000000
 -0.300000  0.300000 -0.000000      2.000000
 -0.200000  0.300000 -0.000000      2.000000
 -0.100000  0.300000 -0.000000      2.000000
 -0.000000  0.400000  0.000000      2.000000
  0.100000  0.400000  0.000000      2.000000
  0.200000  0.400000  0.000000      2.000000
  0.300000  0.400000  0.000000      2.000000
  0.400000  0.400000  0.000000      2.000000
  0.500000  0.400000  0.000000      2.000000
 -0.400000  0.400000 -0.000000      2.000000
 -0.300000  0.400000 -0.000000      2.000000
 -0.200000  0.400000 -0.000000      2.000000
 -0.100000  0.400000  0.000000      2.000000
 -0.000000  0.500000  0.000000      1.000000
  0.100000  0.500000  0.000000      2.000000
  0.200000  0.500000  0.000000      2.000000
  0.300000  0.500000  0.000000      2.000000
  0.400000  0.500000  0.000000      2.000000
  0.500000  0.500000  0.000000      1.000000
 -0.000000  0.000000  0.142857      2.000000
  0.100000  0.000000  0.142857      2.000000
  0.200000 -0.000000  0.142857      2.000000
  0.300000  0.000000  0.142857      2.000000
  0.400000  0.000000  0.142857      2.000000
  0.500000 -0.000000  0.142857      2.000000
 -0.400000  0.000000  0.142857      2.000000
 -0.300000  0.000000  0.142857      2.000000
 -0.200000 -0.000000  0.142857      2.000000
 -0.100000  0.000000  0.142857      2.000000
 -0.000000  0.100000  0.142857      2.000000
  0.100000  0.100000  0.142857      2.000000
  0.200000  0.100000  0.142857      2.000000
  0.300000  0.100000  0.142857      2.000000
  0.400000  0.100000  0.142857      2.000000
  0.500000  0.100000  0.142857      2.000000
 -0.400000  0.100000  0.142857      2.000000
 -0.300000  0.100000  0.142857      2.000000
 -0.200000  0.100000  0.142857      2.000000
 -0.100000  0.100000  0.142857      2.000000
 -0.000000  0.200000  0.142857      2.000000
  0.100000  0.200000  0.142857      2.000000
  0.200000  0.200000  0.142857      2.000000
  0.300000  0.200000  0.142857      2.000000
  0.400000  0.200000  0.142857      2.000000
  0.500000  0.200000  0.142857      2.000000
 -0.400000  0.200000  0.142857      2.000000
 -0.300000  0.200000  0.142857      2.000000
 -0.200000  0.200000  0.142857      2.000000
 -0.100000  0.200000  0.142857      2.000000
 -0.000000  0.300000  0.142857      2.000000
  0.100000  0.300000  0.142857      2.000000
  0.200000  0.300000  0.142857      2.000000
  0.300000  0.300000  0.142857      2.000000
  0.400000  0.300000  0.142857      2.000000
  0.500000  0.300000  0.142857      2.000000
 -0.400000  0.300000  0.142857      2.000000
 -0.300000  0.300000  0.142857      2.000000
 -0.200000  0.300000  0.142857      2.000000
 -0.100000  0.300000  0.142857      2.000000
 -0.000000  0.400000  0.142857      2.000000
  0.100000  0.400000  0.142857      2.000000
  0.200000  0.400000  0.142857      2.000000
  0.300000  0.400000  0.142857      2.000000
  0.400000  0.400000  0.142857      2.000000
  0.500000  0.400000  0.142857      2.000000
 -0.400000  0.400000  0.142857      2.000000
 -0.300000  0.400000  0.142857      2.000000
 -0.200000  0.400000  0.142857      2.000000
 -0.100000  0.400000  0.142857      2.000000
 -0.000000  0.500000  0.142857      2.000000
  0.100000  0.500000  0.142857      2.000000
  0.200000  0.500000  0.142857      2.000000
  0.300000  0.500000  0.142857      2.000000
  0.400000  0.500000  0.142857      2.000000
  0.500000  0.500000  0.142857      2.000000
 -0.400000  0.500000  0.142857      2.000000
 -0.300000  0.500000  0.142857      2.000000
 -0.200000  0.500000  0.142857      2.000000
 -0.100000  0.500000  0.142857      2.000000
  0.000000 -0.400000  0.142857      2.000000
  0.100000 -0.400000  0.142857      2.000000
  0.200000 -0.400000  0.142857      2.000000
  0.300000 -0.400000  0.142857      2.000000
  0.400000 -0.400000  0.142857      2.000000
  0.500000 -0.400000  0.142857      2.000000
 -0.400000 -0.400000  0.142857      2.000000
 -0.300000 -0.400000  0.142857      2.000000
 -0.200000 -0.400000  0.142857      2.000000
 -0.100000 -0.400000  0.142857      2.000000
  0.000000 -0.300000  0.142857      2.000000
  0.100000 -0.300000  0.142857      2.000000
  0.200000 -0.300000  0.142857      2.000000
  0.300000 -0.300000  0.142857      2.000000
  0.400000 -0.300000  0.142857      2.000000
  0.500000 -0.300000  0.142857      2.000000
 -0.400000 -0.300000  0.142857      2.000000
 -0.300000 -0.300000  0.142857      2.000000
 -0.200000 -0.300000  0.142857      2.000000
 -0.100000 -0.300000  0.142857      2.000000
  0.000000 -0.200000  0.142857      2.000000
  0.100000 -0.200000  0.142857      2.000000
  0.200000 -0.200000  0.142857      2.000000
  0.300000 -0.200000  0.142857      2.000000
  0.400000 -0.200000  0.142857      2.000000
  0.500000 -0.200000  0.142857      2.000000
 -0.400000 -0.200000  0.142857      2.000000
 -0.300000 -0.200000  0.142857      2.000000
 -0.200000 -0.200000  0.142857      2.000000
 -0.100000 -0.200000  0.142857      2.000000
 -0.000000 -0.100000  0.142857      2.000000
  0.100000 -0.100000  0.142857      2.000000
  0.200000 -0.100000  0.142857      2.000000
  0.300000 -0.100000  0.142857      2.000000
  0.400000 -0.100000  0.142857      2.000000
  0.500000 -0.100000  0.142857      2.000000
 -0.400000 -0.100000  0.142857      2.000000
 -0.300000 -0.100000  0.142857      2.000000
 -0.200000 -0.100000  0.142857      2.000000
 -0.100000 -0.100000  0.142857      2.000000
  0.000000  0.000000  0.285714      2.000000
  0.100000 -0.000000  0.285714      2.000000
  0.200000  0.000000  0.285714      2.000000
  0.300000  0.000000  0.285714      2.000000
  0.400000 -0.000000  0.285714      2.000000
  0.500000  0.000000  0.285714      2.000000
 -0.400000 -0.000000  0.285714      2.000000
 -0.300000 -0.000000  0.285714      2.000000
 -0.200000  0.000000  0.285714      2.000000
 -0.100000  0.000000  0.285714      2.000000
 -0.000000  0.100000  0.285714      2.000000
  0.100000  0.100000  0.285714      2.000000
  0.200000  0.100000  0.285714      2.000000
  0.300000  0.100000  0.285714      2.000000
  0.400000  0.100000  0.285714      2.000000
  0.500000  0.100000  0.285714      2.000000
 -0.400000  0.100000  0.285714      2.000000
 -0.300000  0.100000  0.285714      2.000000
 -0.200000  0.100000  0.285714      2.000000
 -0.100000  0.100000  0.285714      2.000000
 -0.000000  0.200000  0.285714      2.000000
  0.100000  0.200000  0.285714      2.000000
  0.200000  0.200000  0.285714      2.000000
  0.300000  0.200000  0.285714      2.000000
  0.400000  0.200000  0.285714      2.000000
  0.500000  0.200000  0.285714      2.000000
 -0.400000  0.200000  0.285714      2.000000
 -0.300000  0.200000  0.285714      2.000000
 -0.200000  0.200000  0.285714      2.000000
 -0.100000  0.200000  0.285714      2.000000
 -0.000000  0.300000  0.285714      2.000000
  0.100000  0.300000  0.285714      2.000000
  0.200000  0.300000  0.285714      2.000000
  0.300000  0.300000  0.285714      2.000000
  0.400000  0.300000  0.285714      2.000000
  0.500000  0.300000  0.285714      2.000000
 -0.400000  0.300000  0.285714      2.000000
 -0.300000  0.300000  0.285714      2.000000
 -0.200000  0.300000  0.285714      2.000000
 -0.100000  0.300000  0.285714      2.000000
 -0.000000  0.400000  0.285714      2.000000
  0.100000  0.400000  0.285714      2.000000
  0.200000  0.400000  0.285714      2.000000
  0.300000  0.400000  0.285714      2.000000
  0.400000  0.400000  0.285714      2.000000
  0.500000  0.400000  0.285714      2.000000
 -0.400000  0.400000  0.285714      2.000000
 -0.300000  0.400000  0.285714      2.000000
 -0.200000  0.400000  0.285714      2.000000
 -0.100000  0.400000  0.285714      2.000000
 -0.000000  0.500000  0.285714      2.000000
  0.100000  0.500000  0.285714      2.000000
  0.200000  0.500000  0.285714      2.000000
  0.300000  0.500000  0.285714      2.000000
  0.400000  0.500000  0.285714      2.000000
  0.500000  0.500000  0.285714      2.000000
 -0.400000  0.500000  0.285714      2.000000
 -0.300000  0.500000  0.285714      2.000000
 -0.200000  0.500000  0.285714      2.000000
 -0.100000  0.500000  0.285714      2.000000
  0.000000 -0.400000  0.285714      2.000000
  0.100000 -0.400000  0.285714      2.000000
  0.200000 -0.400000  0.285714      2.000000
  0.300000 -0.400000  0.285714      2.000000
  0.400000 -0.400000  0.285714      2.000000
  0.500000 -0.400000  0.285714      2.000000
 -0.400000 -0.400000  0.285714      2.000000
 -0.300000 -0.400000  0.285714      2.000000
 -0.200000 -0.400000  0.285714      2.000000
 -0.100000 -0.400000  0.285714      2.000000
  0.000000 -0.300000  0.285714      2.000000
  0.100000 -0.300000  0.285714      2.000000
  0.200000 -0.300000  0.285714      2.000000
  0.300000 -0.300000  0.285714      2.000000
  0.400000 -0.300000  0.285714      2.000000
  0.500000 -0.300000  0.285714      2.000000
 -0.400000 -0.300000  0.285714      2.000000
 -0.300000 -0.300000  0.285714      2.000000
 -0.200000 -0.300000  0.285714      2.000000
 -0.100000 -0.300000  0.285714      2.000000
  0.000000 -0.200000  0.285714      2.000000
  0.100000 -0.200000  0.285714      2.000000
  0.200000 -0.200000  0.285714      2.000000
  0.300000 -0.200000  0.285714      2.000000
  0.400000 -0.200000  0.285714      2.000000
  0.500000 -0.200000  0.285714      2.000000
 -0.400000 -0.200000  0.285714      2.000000
 -0.300000 -0.200000  0.285714      2.000000
 -0.200000 -0.200000  0.285714      2.000000
 -0.100000 -0.200000  0.285714      2.000000
  0.000000 -0.100000  0.285714      2.000000
  0.100000 -0.100000  0.285714      2.000000
  0.200000 -0.100000  0.285714      2.000000
  0.300000 -0.100000  0.285714      2.000000
  0.400000 -0.100000  0.285714      2.000000
  0.500000 -0.100000  0.285714      2.000000
 -0.400000 -0.100000  0.285714      2.000000
 -0.300000 -0.100000  0.285714      2.000000
 -0.200000 -0.100000  0.285714      2.000000
 -0.100000 -0.100000  0.285714      2.000000
 -0.000000  0.000000  0.428571      2.000000
  0.100000  0.000000  0.428571      2.000000
  0.200000 -0.000000  0.428571      2.000000
  0.300000  0.000000  0.428571      2.000000
  0.400000  0.000000  0.428571      2.000000
  0.500000 -0.000000  0.428571      2.000000
 -0.400000  0.000000  0.428571      2.000000
 -0.300000 -0.000000  0.428571      2.000000
 -0.200000 -0.000000  0.428571      2.000000
 -0.100000 -0.000000  0.428571      2.000000
 -0.000000  0.100000  0.428571      2.000000
  0.100000  0.100000  0.428571      2.000000
  0.200000  0.100000  0.428571      2.000000
  0.300000  0.100000  0.428571      2.000000
  0.400000  0.100000  0.428571      2.000000
  0.500000  0.100000  0.428571      2.000000
 -0.400000  0.100000  0.428571      2.000000
 -0.300000  0.100000  0.428571      2.000000
 -0.200000  0.100000  0.428571      2.000000
 -0.100000  0.100000  0.428571      2.000000
 -0.000000  0.200000  0.428571      2.000000
  0.100000  0.200000  0.428571      2.000000
  0.200000  0.200000  0.428571      2.000000
  0.300000  0.200000  0.428571      2.000000
  0.400000  0.200000  0.428571      2.000000
  0.500000  0.200000  0.428571      2.000000
 -0.400000  0.200000  0.428571      2.000000
 -0.300000  0.200000  0.428571      2.000000
 -0.200000  0.200000  0.428571      2.000000
 -0.100000  0.200000  0.428571      2.000000
 -0.000000  0.300000  0.428571      2.000000
  0.100000  0.300000  0.428571      2.000000
  0.200000  0.300000  0.428571      2.000000
  0.300000  0.300000  0.428571      2.000000
  0.400000  0.300000  0.428571      2.000000
  0.500000  0.300000  0.428571      2.000000
 -0.400000  0.300000  0.428571      2.000000
 -0.300000  0.300000  0.428571      2.000000
 -0.200000  0.300000  0.428571      2.000000
 -0.100000  0.300000  0.428571      2.000000
 -0.000000  0.400000  0.428571      2.000000
  0.100000  0.400000  0.428571      2.000000
  0.200000  0.400000  0.428571      2.000000
  0.300000  0.400000  0.428571      2.000000
  0.400000  0.400000  0.428571      2.000000
  0.500000  0.400000  0.428571      2.000000
 -0.400000  0.400000  0.428571      2.000000
 -0.300000  0.400000  0.428571      2.000000
 -0.200000  0.400000  0.428571      2.000000
 -0.100000  0.400000  0.428571      2.000000
 -0.000000  0.500000  0.428571      2.000000
  0.100000  0.500000  0.428571      2.000000
  0.200000  0.500000  0.428571      2.000000
  0.300000  0.500000  0.428571      2.000000
  0.400000  0.500000  0.428571      2.000000
  0.500000  0.500000  0.428571      2.000000
 -0.400000  0.500000  0.428571      2.000000
 -0.300000  0.500000  0.428571      2.000000
 -0.200000  0.500000  0.428571      2.000000
 -0.100000  0.500000  0.428571      2.000000
 -0.000000 -0.400000  0.428571      2.000000
  0.100000 -0.400000  0.428571      2.000000
  0.200000 -0.400000  0.428571      2.000000
  0.300000 -0.400000  0.428571      2.000000
  0.400000 -0.400000  0.428571      2.000000
  0.500000 -0.400000  0.428571      2.000000
 -0.400000 -0.400000  0.428571      2.000000
 -0.300000 -0.400000  0.428571      2.000000
 -0.200000 -0.400000  0.428571      2.000000
 -0.100000 -0.400000  0.428571      2.000000
 -0.000000 -0.300000  0.428571      2.000000
  0.100000 -0.300000  0.428571      2.000000
  0.200000 -0.300000  0.428571      2.000000
  0.300000 -0.300000  0.428571      2.000000
  0.400000 -0.300000  0.428571      2.000000
  0.500000 -0.300000  0.428571      2.000000
 -0.400000 -0.300000  0.428571      2.000000
 -0.300000 -0.300000  0.428571      2.000000
 -0.200000 -0.300000  0.428571      2.000000
 -0.100000 -0.300000  0.428571      2.000000
  0.000000 -0.200000  0.428571      2.000000
  0.100000 -0.200000  0.428571      2.000000
  0.200000 -0.200000  0.428571      2.000000
  0.300000 -0.200000  0.428571      2.000000
  0.400000 -0.200000  0.428571      2.000000
  0.500000 -0.200000  0.428571      2.000000
 -0.400000 -0.200000  0.428571      2.000000
 -0.300000 -0.200000  0.428571      2.000000
 -0.200000 -0.200000  0.428571      2.000000
 -0.100000 -0.200000  0.428571      2.000000
 -0.000000 -0.100000  0.428571      2.000000
  0.100000 -0.100000  0.428571      2.000000
  0.200000 -0.100000  0.428571      2.000000
  0.300000 -0.100000  0.428571      2.000000
  0.400000 -0.100000  0.428571      2.000000
  0.500000 -0.100000  0.428571      2.000000
 -0.400000 -0.100000  0.428571      2.000000
 -0.300000 -0.100000  0.428571      2.000000
 -0.200000 -0.100000  0.428571      2.000000
 -0.100000 -0.100000  0.428571      2.000000
 
 Following cartesian coordinates:
            Coordinates               Weight
  0.000000  0.000000  0.000000      1.000000
  0.031145  0.017981  0.000000      2.000000
  0.062290  0.035963  0.000001      2.000000
  0.093435  0.053944  0.000001      2.000000
  0.124579  0.071926  0.000002      2.000000
  0.155724  0.089907  0.000002      1.000000
  0.000000  0.035963  0.000000      2.000000
  0.031145  0.053944  0.000001      2.000000
  0.062290  0.071926  0.000001      2.000000
  0.093435  0.089907  0.000001      2.000000
  0.124580  0.107889  0.000002      2.000000
  0.155725  0.125870  0.000002      2.000000
 -0.124579 -0.035963 -0.000001      2.000000
 -0.093434 -0.017982 -0.000001      2.000000
 -0.062290 -0.000000 -0.000001      2.000000
 -0.031145  0.017981 -0.000000      2.000000
  0.000000  0.071925  0.000000      2.000000
  0.031145  0.089907  0.000001      2.000000
  0.062290  0.107888  0.000001      2.000000
  0.093435  0.125870  0.000002      2.000000
  0.124580  0.143851  0.000002      2.000000
  0.155725  0.161833  0.000002      2.000000
 -0.124579 -0.000001 -0.000001      2.000000
 -0.093434  0.017981 -0.000001      2.000000
 -0.062289  0.035962 -0.000000      2.000000
 -0.031145  0.053944 -0.000000      2.000000
  0.000001  0.107888  0.000001      2.000000
  0.031145  0.125870  0.000001      2.000000
  0.062290  0.143851  0.000001      2.000000
  0.093435  0.161833  0.000002      2.000000
  0.124580  0.179814  0.000002      2.000000
  0.155725  0.197796  0.000003      2.000000
 -0.124579  0.035962 -0.000001      2.000000
 -0.093434  0.053944 -0.000001      2.000000
 -0.062289  0.071925 -0.000000      2.000000
 -0.031144  0.089907  0.000000      2.000000
  0.000001  0.143851  0.000001      2.000000
  0.031146  0.161832  0.000001      2.000000
  0.062290  0.179814  0.000002      2.000000
  0.093435  0.197795  0.000002      2.000000
  0.124580  0.215777  0.000002      2.000000
  0.155725  0.233758  0.000003      2.000000
 -0.124579  0.071925 -0.000001      2.000000
 -0.093434  0.089906 -0.000000      2.000000
 -0.062289  0.107888 -0.000000      2.000000
 -0.031144  0.125869  0.000000      2.000000
  0.000001  0.179813  0.000001      1.000000
  0.031146  0.197795  0.000001      2.000000
  0.062291  0.215776  0.000002      2.000000
  0.093435  0.233758  0.000002      2.000000
  0.124580  0.251739  0.000003      2.000000
  0.155725  0.269721  0.000003      1.000000
  0.000000  0.000000  0.029784      2.000000
  0.031145  0.017982  0.029784      2.000000
  0.062290  0.035963  0.029785      2.000000
  0.093435  0.053945  0.029785      2.000000
  0.124580  0.071926  0.029785      2.000000
  0.155725  0.089908  0.029786      2.000000
 -0.124579 -0.071926  0.029782      2.000000
 -0.093434 -0.053944  0.029783      2.000000
 -0.062289 -0.035963  0.029783      2.000000
 -0.031145 -0.017981  0.029783      2.000000
  0.000000  0.035963  0.029784      2.000000
  0.031145  0.053944  0.029784      2.000000
  0.062290  0.071926  0.029785      2.000000
  0.093435  0.089907  0.029785      2.000000
  0.124580  0.107889  0.029786      2.000000
  0.155725  0.125870  0.029786      2.000000
 -0.124579 -0.035963  0.029782      2.000000
 -0.093434 -0.017982  0.029783      2.000000
 -0.062289 -0.000000  0.029783      2.000000
 -0.031144  0.017981  0.029784      2.000000
  0.000001  0.071926  0.029784      2.000000
  0.031146  0.089907  0.029785      2.000000
  0.062290  0.107889  0.029785      2.000000
  0.093435  0.125870  0.029785      2.000000
  0.124580  0.143852  0.029786      2.000000
  0.155725  0.161833  0.029786      2.000000
 -0.124579 -0.000000  0.029783      2.000000
 -0.093434  0.017981  0.029783      2.000000
 -0.062289  0.035963  0.029783      2.000000
 -0.031144  0.053944  0.029784      2.000000
  0.000001  0.107888  0.029784      2.000000
  0.031146  0.125870  0.029785      2.000000
  0.062291  0.143851  0.029785      2.000000
  0.093435  0.161833  0.029786      2.000000
  0.124580  0.179814  0.029786      2.000000
  0.155725  0.197796  0.029786      2.000000
 -0.124579  0.035962  0.029783      2.000000
 -0.093434  0.053944  0.029783      2.000000
 -0.062289  0.071925  0.029784      2.000000
 -0.031144  0.089907  0.029784      2.000000
  0.000001  0.143851  0.029785      2.000000
  0.031146  0.161832  0.029785      2.000000
  0.062291  0.179814  0.029785      2.000000
  0.093436  0.197795  0.029786      2.000000
  0.124580  0.215777  0.029786      2.000000
  0.155725  0.233758  0.029787      2.000000
 -0.124578  0.071925  0.029783      2.000000
 -0.093434  0.089906  0.029783      2.000000
 -0.062289  0.107888  0.029784      2.000000
 -0.031144  0.125869  0.029784      2.000000
  0.000001  0.179814  0.029785      2.000000
  0.031146  0.197795  0.029785      2.000000
  0.062291  0.215777  0.029786      2.000000
  0.093436  0.233758  0.029786      2.000000
  0.124581  0.251740  0.029786      2.000000
  0.155726  0.269721  0.029787      2.000000
 -0.124578  0.107888  0.029783      2.000000
 -0.093433  0.125869  0.029784      2.000000
 -0.062289  0.143851  0.029784      2.000000
 -0.031144  0.161832  0.029784      2.000000
 -0.000000 -0.143851  0.029783      2.000000
  0.031144 -0.125869  0.029783      2.000000
  0.062289 -0.107888  0.029784      2.000000
  0.093434 -0.089906  0.029784      2.000000
  0.124579 -0.071925  0.029785      2.000000
  0.155724 -0.053943  0.029785      2.000000
 -0.124580 -0.215777  0.029781      2.000000
 -0.093435 -0.197795  0.029782      2.000000
 -0.062290 -0.179814  0.029782      2.000000
 -0.031145 -0.161832  0.029783      2.000000
 -0.000000 -0.107888  0.029783      2.000000
  0.031145 -0.089906  0.029784      2.000000
  0.062289 -0.071925  0.029784      2.000000
  0.093434 -0.053943  0.029784      2.000000
  0.124579 -0.035962  0.029785      2.000000
  0.155724 -0.017980  0.029785      2.000000
 -0.124580 -0.179814  0.029782      2.000000
 -0.093435 -0.161832  0.029782      2.000000
 -0.062290 -0.143851  0.029782      2.000000
 -0.031145 -0.125869  0.029783      2.000000
 -0.000000 -0.071925  0.029783      2.000000
  0.031145 -0.053944  0.029784      2.000000
  0.062290 -0.035962  0.029784      2.000000
  0.093435 -0.017981  0.029785      2.000000
  0.124579  0.000001  0.029785      2.000000
  0.155724  0.017982  0.029785      2.000000
 -0.124580 -0.143851  0.029782      2.000000
 -0.093435 -0.125870  0.029782      2.000000
 -0.062290 -0.107888  0.029783      2.000000
 -0.031145 -0.089907  0.029783      2.000000
  0.000000 -0.035963  0.029784      2.000000
  0.031145 -0.017981  0.029784      2.000000
  0.062290  0.000000  0.029784      2.000000
  0.093435  0.017982  0.029785      2.000000
  0.124580  0.035963  0.029785      2.000000
  0.155724  0.053945  0.029786      2.000000
 -0.124579 -0.107889  0.029782      2.000000
 -0.093435 -0.089907  0.029782      2.000000
 -0.062290 -0.071926  0.029783      2.000000
 -0.031145 -0.053944  0.029783      2.000000
  0.000001  0.000000  0.059568      2.000000
  0.031145  0.017982  0.059568      2.000000
  0.062290  0.035963  0.059568      2.000000
  0.093435  0.053945  0.059569      2.000000
  0.124580  0.071926  0.059569      2.000000
  0.155725  0.089908  0.059570      2.000000
 -0.124579 -0.071926  0.059566      2.000000
 -0.093434 -0.053944  0.059566      2.000000
 -0.062289 -0.035963  0.059567      2.000000
 -0.031144 -0.017981  0.059567      2.000000
  0.000001  0.035963  0.059568      2.000000
  0.031146  0.053945  0.059568      2.000000
  0.062290  0.071926  0.059569      2.000000
  0.093435  0.089908  0.059569      2.000000
  0.124580  0.107889  0.059569      2.000000
  0.155725  0.125871  0.059570      2.000000
 -0.124579 -0.035963  0.059566      2.000000
 -0.093434 -0.017981  0.059567      2.000000
 -0.062289  0.000000  0.059567      2.000000
 -0.031144  0.017982  0.059567      2.000000
  0.000001  0.071926  0.059568      2.000000
  0.031146  0.089907  0.059568      2.000000
  0.062291  0.107889  0.059569      2.000000
  0.093436  0.125870  0.059569      2.000000
  0.124580  0.143852  0.059570      2.000000
  0.155725  0.161833  0.059570      2.000000
 -0.124579 -0.000000  0.059566      2.000000
 -0.093434  0.017981  0.059567      2.000000
 -0.062289  0.035963  0.059567      2.000000
 -0.031144  0.053944  0.059568      2.000000
  0.000001  0.107888  0.059568      2.000000
  0.031146  0.125870  0.059569      2.000000
  0.062291  0.143851  0.059569      2.000000
  0.093436  0.161833  0.059569      2.000000
  0.124581  0.179814  0.059570      2.000000
  0.155725  0.197796  0.059570      2.000000
 -0.124578  0.035962  0.059567      2.000000
 -0.093434  0.053944  0.059567      2.000000
 -0.062289  0.071925  0.059567      2.000000
 -0.031144  0.089907  0.059568      2.000000
  0.000001  0.143851  0.059568      2.000000
  0.031146  0.161833  0.059569      2.000000
  0.062291  0.179814  0.059569      2.000000
  0.093436  0.197796  0.059570      2.000000
  0.124581  0.215777  0.059570      2.000000
  0.155726  0.233759  0.059570      2.000000
 -0.124578  0.071925  0.059567      2.000000
 -0.093433  0.089907  0.059567      2.000000
 -0.062288  0.107888  0.059568      2.000000
 -0.031144  0.125870  0.059568      2.000000
  0.000001  0.179814  0.059569      2.000000
  0.031146  0.197795  0.059569      2.000000
  0.062291  0.215777  0.059569      2.000000
  0.093436  0.233758  0.059570      2.000000
  0.124581  0.251740  0.059570      2.000000
  0.155726  0.269721  0.059571      2.000000
 -0.124578  0.107888  0.059567      2.000000
 -0.093433  0.125869  0.059567      2.000000
 -0.062288  0.143851  0.059568      2.000000
 -0.031143  0.161832  0.059568      2.000000
 -0.000000 -0.143850  0.059567      2.000000
  0.031145 -0.125869  0.059567      2.000000
  0.062290 -0.107887  0.059568      2.000000
  0.093434 -0.089906  0.059568      2.000000
  0.124579 -0.071924  0.059568      2.000000
  0.155724 -0.053943  0.059569      2.000000
 -0.124580 -0.215776  0.059565      2.000000
 -0.093435 -0.197795  0.059566      2.000000
 -0.062290 -0.179813  0.059566      2.000000
 -0.031145 -0.161832  0.059566      2.000000
  0.000000 -0.107888  0.059567      2.000000
  0.031145 -0.089906  0.059567      2.000000
  0.062290 -0.071925  0.059568      2.000000
  0.093435 -0.053943  0.059568      2.000000
  0.124580 -0.035962  0.059569      2.000000
  0.155724 -0.017980  0.059569      2.000000
 -0.124579 -0.179814  0.059565      2.000000
 -0.093435 -0.161832  0.059566      2.000000
 -0.062290 -0.143851  0.059566      2.000000
 -0.031145 -0.125869  0.059567      2.000000
  0.000000 -0.071925  0.059567      2.000000
  0.031145 -0.053944  0.059568      2.000000
  0.062290 -0.035962  0.059568      2.000000
  0.093435 -0.017981  0.059568      2.000000
  0.124580  0.000001  0.059569      2.000000
  0.155725  0.017982  0.059569      2.000000
 -0.124579 -0.143851  0.059566      2.000000
 -0.093434 -0.125870  0.059566      2.000000
 -0.062290 -0.107888  0.059566      2.000000
 -0.031145 -0.089907  0.059567      2.000000
  0.000000 -0.035962  0.059567      2.000000
  0.031145 -0.017981  0.059568      2.000000
  0.062290  0.000001  0.059568      2.000000
  0.093435  0.017982  0.059569      2.000000
  0.124580  0.035964  0.059569      2.000000
  0.155725  0.053945  0.059569      2.000000
 -0.124579 -0.107888  0.059566      2.000000
 -0.093434 -0.089907  0.059566      2.000000
 -0.062289 -0.071925  0.059567      2.000000
 -0.031144 -0.053944  0.059567      2.000000
  0.000001  0.000000  0.089351      2.000000
  0.031146  0.017982  0.089352      2.000000
  0.062291  0.035963  0.089352      2.000000
  0.093435  0.053945  0.089353      2.000000
  0.124580  0.071926  0.089353      2.000000
  0.155725  0.089908  0.089353      2.000000
 -0.124579 -0.071926  0.089350      2.000000
 -0.093434 -0.053944  0.089350      2.000000
 -0.062289 -0.035963  0.089351      2.000000
 -0.031144 -0.017981  0.089351      2.000000
  0.000001  0.035963  0.089352      2.000000
  0.031146  0.053945  0.089352      2.000000
  0.062291  0.071926  0.089352      2.000000
  0.093436  0.089908  0.089353      2.000000
  0.124581  0.107889  0.089353      2.000000
  0.155725  0.125871  0.089354      2.000000
 -0.124578 -0.035963  0.089350      2.000000
 -0.093434 -0.017981  0.089350      2.000000
 -0.062289  0.000000  0.089351      2.000000
 -0.031144  0.017982  0.089351      2.000000
  0.000001  0.071926  0.089352      2.000000
  0.031146  0.089907  0.089352      2.000000
  0.062291  0.107889  0.089353      2.000000
  0.093436  0.125870  0.089353      2.000000
  0.124581  0.143852  0.089353      2.000000
  0.155726  0.161833  0.089354      2.000000
 -0.124578 -0.000000  0.089350      2.000000
 -0.093433  0.017981  0.089351      2.000000
 -0.062289  0.035963  0.089351      2.000000
 -0.031144  0.053944  0.089351      2.000000
  0.000001  0.107889  0.089352      2.000000
  0.031146  0.125870  0.089352      2.000000
  0.062291  0.143852  0.089353      2.000000
  0.093436  0.161833  0.089353      2.000000
  0.124581  0.179815  0.089354      2.000000
  0.155726  0.197796  0.089354      2.000000
 -0.124578  0.035963  0.089350      2.000000
 -0.093433  0.053944  0.089351      2.000000
 -0.062288  0.071926  0.089351      2.000000
 -0.031143  0.089907  0.089352      2.000000
  0.000002  0.143851  0.089352      2.000000
  0.031146  0.161833  0.089353      2.000000
  0.062291  0.179814  0.089353      2.000000
  0.093436  0.197796  0.089353      2.000000
  0.124581  0.215777  0.089354      2.000000
  0.155726  0.233759  0.089354      2.000000
 -0.124578  0.071925  0.089351      2.000000
 -0.093433  0.089907  0.089351      2.000000
 -0.062288  0.107888  0.089351      2.000000
 -0.031143  0.125870  0.089352      2.000000
  0.000002  0.179814  0.089352      2.000000
  0.031147  0.197795  0.089353      2.000000
  0.062291  0.215777  0.089353      2.000000
  0.093436  0.233758  0.089354      2.000000
  0.124581  0.251740  0.089354      2.000000
  0.155726  0.269721  0.089354      2.000000
 -0.124578  0.107888  0.089351      2.000000
 -0.093433  0.125869  0.089351      2.000000
 -0.062288  0.143851  0.089352      2.000000
 -0.031143  0.161832  0.089352      2.000000
  0.000000 -0.143850  0.089351      2.000000
  0.031145 -0.125869  0.089351      2.000000
  0.062290 -0.107887  0.089351      2.000000
  0.093435 -0.089906  0.089352      2.000000
  0.124580 -0.071924  0.089352      2.000000
  0.155724 -0.053943  0.089353      2.000000
 -0.124579 -0.215776  0.089349      2.000000
 -0.093434 -0.197795  0.089349      2.000000
 -0.062290 -0.179813  0.089350      2.000000
 -0.031145 -0.161832  0.089350      2.000000
  0.000000 -0.107888  0.089351      2.000000
  0.031145 -0.089906  0.089351      2.000000
  0.062290 -0.071925  0.089352      2.000000
  0.093435 -0.053943  0.089352      2.000000
  0.124580 -0.035962  0.089352      2.000000
  0.155725 -0.017980  0.089353      2.000000
 -0.124579 -0.179814  0.089349      2.000000
 -0.093434 -0.161832  0.089350      2.000000
 -0.062289 -0.143851  0.089350      2.000000
 -0.031145 -0.125869  0.089350      2.000000
  0.000000 -0.071925  0.089351      2.000000
  0.031145 -0.053943  0.089351      2.000000
  0.062290 -0.035962  0.089352      2.000000
  0.093435 -0.017980  0.089352      2.000000
  0.124580  0.000001  0.089353      2.000000
  0.155725  0.017983  0.089353      2.000000
 -0.124579 -0.143851  0.089349      2.000000
 -0.093434 -0.125869  0.089350      2.000000
 -0.062289 -0.107888  0.089350      2.000000
 -0.031144 -0.089906  0.089351      2.000000
  0.000001 -0.035962  0.089351      2.000000
  0.031146 -0.017981  0.089352      2.000000
  0.062290  0.000001  0.089352      2.000000
  0.093435  0.017982  0.089352      2.000000
  0.124580  0.035964  0.089353      2.000000
  0.155725  0.053945  0.089353      2.000000
 -0.124579 -0.107888  0.089350      2.000000
 -0.093434 -0.089907  0.089350      2.000000
 -0.062289 -0.071925  0.089350      2.000000
 -0.031144 -0.053944  0.089351      2.000000
 


--------------------------------------------------------------------------------------------------------




 Dimension of arrays:
   k-points           NKPTS =    352   k-points in BZ     NKDIM =    352   number of bands    NBANDS=     16
   number of dos      NEDOS =    301   number of ions     NIONS =      5
   non local maximal  LDIM  =      6   non local SUM 2l+1 LMDIM =     18
   total plane-waves  NPLWV =   6144
   max r-space proj   IRMAX =      1   max aug-charges    IRDMAX=   5857
   dimension x,y,z NGX =    16 NGY =   16 NGZ =   24
   dimension x,y,z NGXF=    32 NGYF=   32 NGZF=   48
   support grid    NGXF=    32 NGYF=   32 NGZF=   48
   ions per type =               1   2   2
   NGX,Y,Z   is equivalent  to a cutoff of   8.28,  8.28,  8.32 a.u.
   NGXF,Y,Z  is equivalent  to a cutoff of  16.57, 16.57, 16.64 a.u.

 SYSTEM =  unknown system                          
 POSCAR =  Co O  H                                 

 Startparameter for this run:
   NWRITE =      2    write-flag & timer
   PREC   = normal    normal or accurate (medium, high low for compatibility)
   ISTART =      0    job   : 0-new  1-cont  2-samecut
   ICHARG =      2    charge: 1-file 2-atom 10-const
   ISPIN  =      1    spin polarized calculation?
   LNONCOLLINEAR =      F non collinear calculations
   LSORBIT =      F    spin-orbit coupling
   INIWAV =      1    electr: 0-lowe 1-rand  2-diag
   LASPH  =      F    aspherical Exc in radial PAW
   METAGGA=      F    non-selfconsistent MetaGGA calc.

 Electronic Relaxation 1
   ENCUT  =  400.0 eV  29.40 Ry    5.42 a.u.   5.24  5.24  7.82*2*pi/ulx,y,z
   ENINI  =  400.0     initial cutoff
   ENAUG  =  605.4 eV  augmentation charge cutoff
   NELM   =     60;   NELMIN=  4; NELMDL= -5     # of ELM steps 
   EDIFF  = 0.1E-05   stopping-criterion for ELM
   LREAL  =      F    real-space projection
   NLSPLINE    = F    spline interpolate recip. space projectors
   LCOMPAT=      F    compatible to vasp.4.4
   GGA_COMPAT  = T    GGA compatible to vasp.4.4-vasp.4.6
   LMAXPAW     = -100 max onsite density
   LMAXMIX     =    2 max onsite mixed and CHGCAR
   VOSKOWN=      0    Vosko Wilk Nusair interpolation
   ROPT   =    0.00000   0.00000   0.00000
 Ionic relaxation
   EDIFFG = 0.1E-01   stopping-criterion for IOM
   NSW    =     20    number of steps for IOM
   NBLOCK =      1;   KBLOCK =     20    inner block; outer block 
   IBRION =      2    ionic relax: 0-MD 1-quasi-New 2-CG
   NFREE  =      1    steps in history (QN), initial steepest desc. (CG)
   ISIF   =      3    stress and relaxation
   IWAVPR =     11    prediction:  0-non 1-charg 2-wave 3-comb
   ISYM   =      2    0-nonsym 1-usesym 2-fastsym
   LCORR  =      T    Harris-Foulkes like correction to forces

   POTIM  = 0.5000    time-step for ionic-motion
   TEIN   =    0.0    initial temperature
   TEBEG  =    0.0;   TEEND  =   0.0 temperature during run
   SMASS  =  -3.00    Nose mass-parameter (am)
   estimated Nose-frequenzy (Omega)   =  0.10E-29 period in steps =****** mass=  -0.236E-27a.u.
   SCALEE = 1.0000    scale energy and forces
   NPACO  =    256;   APACO  = 16.0  distance and # of slots for P.C.
   PSTRESS=    0.0 pullay stress

  Mass of Ions in am
   POMASS =  58.93 16.00  1.00
  Ionic Valenz
   ZVAL   =   9.00  6.00  1.00
  Atomic Wigner-Seitz radii
   RWIGS  =  -1.00 -1.00 -1.00
  virtual crystal weights 
   VCA    =   1.00  1.00  1.00
   NELECT =      23.0000    total number of electrons
   NUPDOWN=      -1.0000    fix difference up-down

 DOS related values:
   EMIN   =  10.00;   EMAX   =-10.00  energy-range for DOS
   EFERMI =   0.00
   ISMEAR =     0;   SIGMA  =   0.10  broadening in eV -4-tet -1-fermi 0-gaus

 Electronic relaxation 2 (details)
   IALGO  =     38    algorithm
   LDIAG  =      T    sub-space diagonalisation (order eigenvalues)
   LSUBROT=      F    optimize rotation matrix (better conditioning)
   TURBO    =      0    0=normal 1=particle mesh
   IRESTART =      0    0=no restart 2=restart with 2 vectors
   NREBOOT  =      0    no. of reboots
   NMIN     =      0    reboot dimension
   EREF     =   0.00    reference energy to select bands
   IMIX   =      4    mixing-type and parameters
     AMIX     =   0.40;   BMIX     =  1.00
     AMIX_MAG =   1.60;   BMIX_MAG =  1.00
     AMIN     =   0.10
     WC   =   100.;   INIMIX=   1;  MIXPRE=   1;  MAXMIX= -45

 Intra band minimization:
   WEIMIN = 0.0010     energy-eigenvalue tresh-hold
   EBREAK =  0.16E-07  absolut break condition
   DEPER  =   0.30     relativ break condition  

   TIME   =   0.40     timestep for ELM

  volume/ion in A,a.u.               =       8.56        57.80
  Fermi-wavevector in a.u.,A,eV,Ry     =   1.330728  2.514711 24.093699  1.770837
  Thomas-Fermi vector in A             =   2.459793
 
 Write flags
   LWAVE        =      F    write WAVECAR
   LDOWNSAMPLE  =      F    k-point downsampling of WAVECAR
   LCHARG       =      F    write CHGCAR
   LVTOT        =      F    write LOCPOT, total local potential
   LVHAR        =      F    write LOCPOT, Hartree potential only
   LELF         =      F    write electronic localiz. function (ELF)
   LORBIT       =      0    0 simple, 1 ext, 2 COOP (PROOUT), +10 PAW based schemes


 Dipole corrections
   LMONO  =      F    monopole corrections only (constant potential shift)
   LDIPOL =      F    correct potential (dipole corrections)
   IDIPOL =      0    1-x, 2-y, 3-z, 4-all directions 
   EPSILON=  1.0000000 bulk dielectric constant

 Exchange correlation treatment:
   GGA     =    PE    GGA type
   LEXCH   =     8    internal setting for exchange type
   VOSKOWN=      0    Vosko Wilk Nusair interpolation
   LHFCALC =     F    Hartree Fock is set to
   LHFONE  =     F    Hartree Fock one center treatment
   AEXX    =    0.0000 exact exchange contribution

 Linear response parameters
   LEPSILON=     F    determine dielectric tensor
   LRPA    =     F    only Hartree local field effects (RPA)
   LNABLA  =     F    use nabla operator in PAW spheres
   LVEL    =     F    velocity operator in full k-point grid
   LINTERFAST=   F  fast interpolation
   KINTER  =     0    interpolate to denser k-point grid
   CSHIFT  =0.1000    complex shift for real part using Kramers Kronig
   OMEGAMAX=  -1.0    maximum frequency
   DEG_THRESHOLD= 0.2000000E-02 threshold for treating states as degnerate
   RTIME   =   -0.100 relaxation time in fs
  (WPLASMAI=    0.000 imaginary part of plasma frequency in eV, 0.658/RTIME)
   DFIELD  = 0.0000000 0.0000000 0.0000000 field for delta impulse in time
 
 Orbital magnetization related:
   ORBITALMAG=     F  switch on orbital magnetization
   LCHIMAG   =     F  perturbation theory with respect to B field
   DQ        =  0.001000  dq finite difference perturbation B field
   LLRAUG    =     F  two centre corrections for induced B field



--------------------------------------------------------------------------------------------------------


 conjugate gradient relaxation of ions
 charge density and potential will be updated during run
 non-spin polarized calculation
 Variant of blocked Davidson
 Davidson routine will perform the subspace rotation
 perform sub-space diagonalisation
    after iterative eigenvector-optimisation
 modified Broyden-mixing scheme, WC =      100.0
 initial mixing is a Kerker type mixing with AMIX =  0.4000 and BMIX =      1.0000
 Hartree-type preconditioning will be used
 using additional bands            4
 reciprocal scheme for non local part
 use partial core corrections
 calculate Harris-corrections to forces 
   (improved forces if not selfconsistent)
 use gradient corrections 
 use of overlap-Matrix (Vanderbilt PP)
 Gauss-broadening in eV      SIGMA  =   0.10


--------------------------------------------------------------------------------------------------------


  energy-cutoff  :      400.00
  volume of cell :       42.82
      direct lattice vectors                 reciprocal lattice vectors
     3.210810674 -0.000015732 -0.000030383     0.311448706  0.179814994  0.000003951
    -1.605418961  2.780667208  0.000000000     0.000001762  0.359626936  0.000001975
    -0.000045636 -0.000026348  4.796472779     0.000001973  0.000001139  0.208486537

  length of vectors
     3.210810674  3.210837922  4.796472779     0.359629988  0.359626936  0.208486537


 
 k-points in units of 2pi/SCALE and weight: KPOINTS created by Atomic Simulation Env
   0.00000000  0.00000000  0.00000000       0.001
   0.03114487  0.01798150  0.00000040       0.003
   0.06228974  0.03596300  0.00000079       0.003
   0.09343461  0.05394450  0.00000119       0.003
   0.12457948  0.07192600  0.00000158       0.003
   0.15572435  0.08990750  0.00000198       0.001
   0.00000018  0.03596269  0.00000020       0.003
   0.03114505  0.05394419  0.00000059       0.003
   0.06228992  0.07192569  0.00000099       0.003
   0.09343479  0.08990719  0.00000138       0.003
   0.12457966  0.10788869  0.00000178       0.003
   0.15572453  0.12587019  0.00000217       0.003
  -0.12457931 -0.03596330 -0.00000138       0.003
  -0.09343444 -0.01798180 -0.00000099       0.003
  -0.06228956 -0.00000031 -0.00000059       0.003
  -0.03114469  0.01798119 -0.00000020       0.003
   0.00000035  0.07192539  0.00000040       0.003
   0.03114522  0.08990689  0.00000079       0.003
   0.06229009  0.10788839  0.00000119       0.003
   0.09343496  0.12586989  0.00000158       0.003
   0.12457983  0.14385138  0.00000198       0.003
   0.15572471  0.16183288  0.00000237       0.003
  -0.12457913 -0.00000061 -0.00000119       0.003
  -0.09343426  0.01798089 -0.00000079       0.003
  -0.06228939  0.03596239 -0.00000040       0.003
  -0.03114452  0.05394389 -0.00000000       0.003
   0.00000053  0.10788808  0.00000059       0.003
   0.03114540  0.12586958  0.00000099       0.003
   0.06229027  0.14385108  0.00000138       0.003
   0.09343514  0.16183258  0.00000178       0.003
   0.12458001  0.17981408  0.00000217       0.003
   0.15572488  0.19779558  0.00000257       0.003
  -0.12457895  0.03596208 -0.00000099       0.003
  -0.09343408  0.05394358 -0.00000059       0.003
  -0.06228921  0.07192508 -0.00000020       0.003
  -0.03114434  0.08990658  0.00000020       0.003
   0.00000070  0.14385077  0.00000079       0.003
   0.03114558  0.16183227  0.00000119       0.003
   0.06229045  0.17981377  0.00000158       0.003
   0.09343532  0.19779527  0.00000198       0.003
   0.12458019  0.21577677  0.00000237       0.003
   0.15572506  0.23375827  0.00000277       0.003
  -0.12457878  0.07192478 -0.00000079       0.003
  -0.09343391  0.08990628 -0.00000040       0.003
  -0.06228904  0.10788778 -0.00000000       0.003
  -0.03114417  0.12586928  0.00000040       0.003
   0.00000088  0.17981347  0.00000099       0.001
   0.03114575  0.19779497  0.00000138       0.003
   0.06229062  0.21577647  0.00000178       0.003
   0.09343549  0.23375797  0.00000217       0.003
   0.12458036  0.25173947  0.00000257       0.003
   0.15572523  0.26972097  0.00000296       0.001
   0.00000028  0.00000016  0.02978379       0.003
   0.03114515  0.01798166  0.02978419       0.003
   0.06229002  0.03596316  0.02978458       0.003
   0.09343489  0.05394466  0.02978498       0.003
   0.12457976  0.07192616  0.02978537       0.003
   0.15572463  0.08990766  0.02978577       0.003
  -0.12457920 -0.07192583  0.02978221       0.003
  -0.09343433 -0.05394434  0.02978261       0.003
  -0.06228946 -0.03596284  0.02978300       0.003
  -0.03114459 -0.01798134  0.02978340       0.003
   0.00000046  0.03596286  0.02978399       0.003
   0.03114533  0.05394436  0.02978438       0.003
   0.06229020  0.07192586  0.02978478       0.003
   0.09343507  0.08990735  0.02978517       0.003
   0.12457994  0.10788885  0.02978557       0.003
   0.15572481  0.12587035  0.02978596       0.003
  -0.12457902 -0.03596314  0.02978241       0.003
  -0.09343415 -0.01798164  0.02978280       0.003
  -0.06228928 -0.00000014  0.02978320       0.003
  -0.03114441  0.01798136  0.02978359       0.003
   0.00000063  0.07192555  0.02978419       0.003
   0.03114550  0.08990705  0.02978458       0.003
   0.06229038  0.10788855  0.02978498       0.003
   0.09343525  0.12587005  0.02978537       0.003
   0.12458012  0.14385155  0.02978577       0.003
   0.15572499  0.16183305  0.02978616       0.003
  -0.12457885 -0.00000045  0.02978261       0.003
  -0.09343398  0.01798105  0.02978300       0.003
  -0.06228911  0.03596255  0.02978340       0.003
  -0.03114424  0.05394405  0.02978379       0.003
   0.00000081  0.10788824  0.02978438       0.003
   0.03114568  0.12586974  0.02978478       0.003
   0.06229055  0.14385124  0.02978517       0.003
   0.09343542  0.16183274  0.02978557       0.003
   0.12458029  0.17981424  0.02978596       0.003
   0.15572516  0.19779574  0.02978636       0.003
  -0.12457867  0.03596225  0.02978280       0.003
  -0.09343380  0.05394375  0.02978320       0.003
  -0.06228893  0.07192524  0.02978359       0.003
  -0.03114406  0.08990674  0.02978399       0.003
   0.00000099  0.14385094  0.02978458       0.003
   0.03114586  0.16183244  0.02978498       0.003
   0.06229073  0.17981394  0.02978537       0.003
   0.09343560  0.19779544  0.02978577       0.003
   0.12458047  0.21577693  0.02978616       0.003
   0.15572534  0.23375843  0.02978656       0.003
  -0.12457850  0.07192494  0.02978300       0.003
  -0.09343363  0.08990644  0.02978340       0.003
  -0.06228875  0.10788794  0.02978379       0.003
  -0.03114388  0.12586944  0.02978419       0.003
   0.00000116  0.17981363  0.02978478       0.003
   0.03114603  0.19779513  0.02978517       0.003
   0.06229090  0.21577663  0.02978557       0.003
   0.09343577  0.23375813  0.02978596       0.003
   0.12458065  0.25173963  0.02978636       0.003
   0.15572552  0.26972113  0.02978675       0.003
  -0.12457832  0.10788763  0.02978320       0.003
  -0.09343345  0.12586913  0.02978359       0.003
  -0.06228858  0.14385063  0.02978399       0.003
  -0.03114371  0.16183213  0.02978438       0.003
  -0.00000042 -0.14385061  0.02978300       0.003
   0.03114445 -0.12586911  0.02978340       0.003
   0.06228932 -0.10788761  0.02978379       0.003
   0.09343419 -0.08990611  0.02978419       0.003
   0.12457906 -0.07192461  0.02978458       0.003
   0.15572393 -0.05394311  0.02978498       0.003
  -0.12457991 -0.21577661  0.02978142       0.003
  -0.09343503 -0.19779511  0.02978182       0.003
  -0.06229016 -0.17981361  0.02978221       0.003
  -0.03114529 -0.16183211  0.02978261       0.003
  -0.00000025 -0.10788792  0.02978320       0.003
   0.03114462 -0.08990642  0.02978359       0.003
   0.06228949 -0.07192492  0.02978399       0.003
   0.09343436 -0.05394342  0.02978438       0.003
   0.12457924 -0.03596192  0.02978478       0.003
   0.15572411 -0.01798042  0.02978517       0.003
  -0.12457973 -0.17981392  0.02978162       0.003
  -0.09343486 -0.16183242  0.02978201       0.003
  -0.06228999 -0.14385092  0.02978241       0.003
  -0.03114512 -0.12586942  0.02978280       0.003
  -0.00000007 -0.07192522  0.02978340       0.003
   0.03114480 -0.05394373  0.02978379       0.003
   0.06228967 -0.03596223  0.02978419       0.003
   0.09343454 -0.01798073  0.02978458       0.003
   0.12457941  0.00000077  0.02978498       0.003
   0.15572428  0.01798227  0.02978537       0.003
  -0.12457955 -0.14385122  0.02978182       0.003
  -0.09343468 -0.12586972  0.02978221       0.003
  -0.06228981 -0.10788822  0.02978261       0.003
  -0.03114494 -0.08990672  0.02978300       0.003
   0.00000011 -0.03596253  0.02978359       0.003
   0.03114498 -0.01798103  0.02978399       0.003
   0.06228985  0.00000047  0.02978438       0.003
   0.09343472  0.01798197  0.02978478       0.003
   0.12457959  0.03596347  0.02978517       0.003
   0.15572446  0.05394497  0.02978557       0.003
  -0.12457938 -0.10788853  0.02978201       0.003
  -0.09343451 -0.08990703  0.02978241       0.003
  -0.06228964 -0.07192553  0.02978280       0.003
  -0.03114476 -0.05394403  0.02978320       0.003
   0.00000056  0.00000033  0.05956758       0.003
   0.03114543  0.01798182  0.05956798       0.003
   0.06229030  0.03596332  0.05956837       0.003
   0.09343518  0.05394482  0.05956877       0.003
   0.12458005  0.07192632  0.05956916       0.003
   0.15572492  0.08990782  0.05956956       0.003
  -0.12457892 -0.07192567  0.05956600       0.003
  -0.09343405 -0.05394417  0.05956640       0.003
  -0.06228918 -0.03596267  0.05956679       0.003
  -0.03114431 -0.01798117  0.05956719       0.003
   0.00000074  0.03596302  0.05956778       0.003
   0.03114561  0.05394452  0.05956817       0.003
   0.06229048  0.07192602  0.05956857       0.003
   0.09343535  0.08990752  0.05956896       0.003
   0.12458022  0.10788902  0.05956936       0.003
   0.15572509  0.12587052  0.05956976       0.003
  -0.12457874 -0.03596298  0.05956620       0.003
  -0.09343387 -0.01798148  0.05956659       0.003
  -0.06228900  0.00000002  0.05956699       0.003
  -0.03114413  0.01798152  0.05956738       0.003
   0.00000092  0.07192571  0.05956798       0.003
   0.03114579  0.08990721  0.05956837       0.003
   0.06229066  0.10788871  0.05956877       0.003
   0.09343553  0.12587021  0.05956916       0.003
   0.12458040  0.14385171  0.05956956       0.003
   0.15572527  0.16183321  0.05956995       0.003
  -0.12457857 -0.00000028  0.05956640       0.003
  -0.09343370  0.01798121  0.05956679       0.003
  -0.06228883  0.03596271  0.05956719       0.003
  -0.03114395  0.05394421  0.05956758       0.003
   0.00000109  0.10788841  0.05956817       0.003
   0.03114596  0.12586991  0.05956857       0.003
   0.06229083  0.14385141  0.05956896       0.003
   0.09343570  0.16183290  0.05956936       0.003
   0.12458057  0.17981440  0.05956976       0.003
   0.15572545  0.19779590  0.05957015       0.003
  -0.12457839  0.03596241  0.05956659       0.003
  -0.09343352  0.05394391  0.05956699       0.003
  -0.06228865  0.07192541  0.05956738       0.003
  -0.03114378  0.08990691  0.05956778       0.003
   0.00000127  0.14385110  0.05956837       0.003
   0.03114614  0.16183260  0.05956877       0.003
   0.06229101  0.17981410  0.05956916       0.003
   0.09343588  0.19779560  0.05956956       0.003
   0.12458075  0.21577710  0.05956995       0.003
   0.15572562  0.23375860  0.05957035       0.003
  -0.12457821  0.07192510  0.05956679       0.003
  -0.09343334  0.08990660  0.05956719       0.003
  -0.06228847  0.10788810  0.05956758       0.003
  -0.03114360  0.12586960  0.05956798       0.003
   0.00000144  0.17981379  0.05956857       0.003
   0.03114632  0.19779529  0.05956896       0.003
   0.06229119  0.21577679  0.05956936       0.003
   0.09343606  0.23375829  0.05956976       0.003
   0.12458093  0.25173979  0.05957015       0.003
   0.15572580  0.26972129  0.05957055       0.003
  -0.12457804  0.10788780  0.05956699       0.003
  -0.09343317  0.12586930  0.05956738       0.003
  -0.06228830  0.14385079  0.05956778       0.003
  -0.03114343  0.16183229  0.05956817       0.003
  -0.00000014 -0.14385045  0.05956679       0.003
   0.03114473 -0.12586895  0.05956719       0.003
   0.06228960 -0.10788745  0.05956758       0.003
   0.09343447 -0.08990595  0.05956798       0.003
   0.12457934 -0.07192445  0.05956837       0.003
   0.15572421 -0.05394295  0.05956877       0.003
  -0.12457962 -0.21577645  0.05956521       0.003
  -0.09343475 -0.19779495  0.05956561       0.003
  -0.06228988 -0.17981345  0.05956600       0.003
  -0.03114501 -0.16183195  0.05956640       0.003
   0.00000004 -0.10788776  0.05956699       0.003
   0.03114491 -0.08990626  0.05956738       0.003
   0.06228978 -0.07192476  0.05956778       0.003
   0.09343465 -0.05394326  0.05956817       0.003
   0.12457952 -0.03596176  0.05956857       0.003
   0.15572439 -0.01798026  0.05956896       0.003
  -0.12457945 -0.17981375  0.05956541       0.003
  -0.09343458 -0.16183225  0.05956580       0.003
  -0.06228971 -0.14385075  0.05956620       0.003
  -0.03114484 -0.12586925  0.05956659       0.003
   0.00000021 -0.07192506  0.05956719       0.003
   0.03114508 -0.05394356  0.05956758       0.003
   0.06228995 -0.03596206  0.05956798       0.003
   0.09343482 -0.01798056  0.05956837       0.003
   0.12457969  0.00000094  0.05956877       0.003
   0.15572456  0.01798244  0.05956916       0.003
  -0.12457927 -0.14385106  0.05956561       0.003
  -0.09343440 -0.12586956  0.05956600       0.003
  -0.06228953 -0.10788806  0.05956640       0.003
  -0.03114466 -0.08990656  0.05956679       0.003
   0.00000039 -0.03596237  0.05956738       0.003
   0.03114526 -0.01798087  0.05956778       0.003
   0.06229013  0.00000063  0.05956817       0.003
   0.09343500  0.01798213  0.05956857       0.003
   0.12457987  0.03596363  0.05956896       0.003
   0.15572474  0.05394513  0.05956936       0.003
  -0.12457909 -0.10788837  0.05956580       0.003
  -0.09343422 -0.08990687  0.05956620       0.003
  -0.06228935 -0.07192537  0.05956659       0.003
  -0.03114448 -0.05394387  0.05956699       0.003
   0.00000085  0.00000049  0.08935137       0.003
   0.03114572  0.01798199  0.08935177       0.003
   0.06229059  0.03596349  0.08935216       0.003
   0.09343546  0.05394499  0.08935256       0.003
   0.12458033  0.07192649  0.08935295       0.003
   0.15572520  0.08990799  0.08935335       0.003
  -0.12457864 -0.07192551  0.08934979       0.003
  -0.09343377 -0.05394401  0.08935019       0.003
  -0.06228890 -0.03596251  0.08935058       0.003
  -0.03114403 -0.01798101  0.08935098       0.003
   0.00000102  0.03596318  0.08935157       0.003
   0.03114589  0.05394468  0.08935197       0.003
   0.06229076  0.07192618  0.08935236       0.003
   0.09343563  0.08990768  0.08935276       0.003
   0.12458050  0.10788918  0.08935315       0.003
   0.15572537  0.12587068  0.08935355       0.003
  -0.12457846 -0.03596282  0.08934999       0.003
  -0.09343359 -0.01798132  0.08935039       0.003
  -0.06228872  0.00000018  0.08935078       0.003
  -0.03114385  0.01798168  0.08935118       0.003
   0.00000120  0.07192588  0.08935177       0.003
   0.03114607  0.08990737  0.08935216       0.003
   0.06229094  0.10788887  0.08935256       0.003
   0.09343581  0.12587037  0.08935295       0.003
   0.12458068  0.14385187  0.08935335       0.003
   0.15572555  0.16183337  0.08935374       0.003
  -0.12457828 -0.00000012  0.08935019       0.003
  -0.09343341  0.01798138  0.08935058       0.003
  -0.06228854  0.03596288  0.08935098       0.003
  -0.03114367  0.05394438  0.08935137       0.003
   0.00000137  0.10788857  0.08935197       0.003
   0.03114624  0.12587007  0.08935236       0.003
   0.06229112  0.14385157  0.08935276       0.003
   0.09343599  0.16183307  0.08935315       0.003
   0.12458086  0.17981457  0.08935355       0.003
   0.15572573  0.19779607  0.08935394       0.003
  -0.12457811  0.03596257  0.08935039       0.003
  -0.09343324  0.05394407  0.08935078       0.003
  -0.06228837  0.07192557  0.08935118       0.003
  -0.03114350  0.08990707  0.08935157       0.003
   0.00000155  0.14385126  0.08935216       0.003
   0.03114642  0.16183276  0.08935256       0.003
   0.06229129  0.17981426  0.08935295       0.003
   0.09343616  0.19779576  0.08935335       0.003
   0.12458103  0.21577726  0.08935374       0.003
   0.15572590  0.23375876  0.08935414       0.003
  -0.12457793  0.07192527  0.08935058       0.003
  -0.09343306  0.08990676  0.08935098       0.003
  -0.06228819  0.10788826  0.08935137       0.003
  -0.03114332  0.12586976  0.08935177       0.003
   0.00000173  0.17981396  0.08935236       0.003
   0.03114660  0.19779546  0.08935276       0.003
   0.06229147  0.21577696  0.08935315       0.003
   0.09343634  0.23375845  0.08935355       0.003
   0.12458121  0.25173995  0.08935394       0.003
   0.15572608  0.26972145  0.08935434       0.003
  -0.12457776  0.10788796  0.08935078       0.003
  -0.09343289  0.12586946  0.08935118       0.003
  -0.06228801  0.14385096  0.08935157       0.003
  -0.03114314  0.16183246  0.08935197       0.003
   0.00000014 -0.14385029  0.08935058       0.003
   0.03114501 -0.12586879  0.08935098       0.003
   0.06228988 -0.10788729  0.08935137       0.003
   0.09343475 -0.08990579  0.08935177       0.003
   0.12457962 -0.07192429  0.08935216       0.003
   0.15572449 -0.05394279  0.08935256       0.003
  -0.12457934 -0.21577628  0.08934900       0.003
  -0.09343447 -0.19779478  0.08934940       0.003
  -0.06228960 -0.17981329  0.08934979       0.003
  -0.03114473 -0.16183179  0.08935019       0.003
   0.00000032 -0.10788759  0.08935078       0.003
   0.03114519 -0.08990609  0.08935118       0.003
   0.06229006 -0.07192459  0.08935157       0.003
   0.09343493 -0.05394309  0.08935197       0.003
   0.12457980 -0.03596160  0.08935236       0.003
   0.15572467 -0.01798010  0.08935276       0.003
  -0.12457917 -0.17981359  0.08934920       0.003
  -0.09343429 -0.16183209  0.08934960       0.003
  -0.06228942 -0.14385059  0.08934999       0.003
  -0.03114455 -0.12586909  0.08935039       0.003
   0.00000049 -0.07192490  0.08935098       0.003
   0.03114536 -0.05394340  0.08935137       0.003
   0.06229023 -0.03596190  0.08935177       0.003
   0.09343510 -0.01798040  0.08935216       0.003
   0.12457998  0.00000110  0.08935256       0.003
   0.15572485  0.01798260  0.08935295       0.003
  -0.12457899 -0.14385090  0.08934940       0.003
  -0.09343412 -0.12586940  0.08934979       0.003
  -0.06228925 -0.10788790  0.08935019       0.003
  -0.03114438 -0.08990640  0.08935058       0.003
   0.00000067 -0.03596221  0.08935118       0.003
   0.03114554 -0.01798071  0.08935157       0.003
   0.06229041  0.00000079  0.08935197       0.003
   0.09343528  0.01798229  0.08935236       0.003
   0.12458015  0.03596379  0.08935276       0.003
   0.15572502  0.05394529  0.08935315       0.003
  -0.12457881 -0.10788820  0.08934960       0.003
  -0.09343394 -0.08990670  0.08934999       0.003
  -0.06228907 -0.07192520  0.08935039       0.003
  -0.03114420 -0.05394370  0.08935078       0.003
 
 k-points in reciprocal lattice and weights: KPOINTS created by Atomic Simulation Env
   0.00000000  0.00000000  0.00000000       0.001
   0.10000000  0.00000000  0.00000000       0.003
   0.20000000 -0.00000000  0.00000000       0.003
   0.30000000  0.00000000  0.00000000       0.003
   0.40000000  0.00000000  0.00000000       0.003
   0.50000000  0.00000000  0.00000000       0.001
  -0.00000000  0.10000000  0.00000000       0.003
   0.10000000  0.10000000  0.00000000       0.003
   0.20000000  0.10000000  0.00000000       0.003
   0.30000000  0.10000000  0.00000000       0.003
   0.40000000  0.10000000  0.00000000       0.003
   0.50000000  0.10000000  0.00000000       0.003
  -0.40000000  0.10000000 -0.00000000       0.003
  -0.30000000  0.10000000 -0.00000000       0.003
  -0.20000000  0.10000000 -0.00000000       0.003
  -0.10000000  0.10000000 -0.00000000       0.003
  -0.00000000  0.20000000  0.00000000       0.003
   0.10000000  0.20000000  0.00000000       0.003
   0.20000000  0.20000000  0.00000000       0.003
   0.30000000  0.20000000 -0.00000000       0.003
   0.40000000  0.20000000  0.00000000       0.003
   0.50000000  0.20000000  0.00000000       0.003
  -0.40000000  0.20000000 -0.00000000       0.003
  -0.30000000  0.20000000 -0.00000000       0.003
  -0.20000000  0.20000000 -0.00000000       0.003
  -0.10000000  0.20000000 -0.00000000       0.003
  -0.00000000  0.30000000  0.00000000       0.003
   0.10000000  0.30000000  0.00000000       0.003
   0.20000000  0.30000000  0.00000000       0.003
   0.30000000  0.30000000  0.00000000       0.003
   0.40000000  0.30000000  0.00000000       0.003
   0.50000000  0.30000000  0.00000000       0.003
  -0.40000000  0.30000000 -0.00000000       0.003
  -0.30000000  0.30000000 -0.00000000       0.003
  -0.20000000  0.30000000 -0.00000000       0.003
  -0.10000000  0.30000000 -0.00000000       0.003
  -0.00000000  0.40000000  0.00000000       0.003
   0.10000000  0.40000000  0.00000000       0.003
   0.20000000  0.40000000  0.00000000       0.003
   0.30000000  0.40000000  0.00000000       0.003
   0.40000000  0.40000000  0.00000000       0.003
   0.50000000  0.40000000  0.00000000       0.003
  -0.40000000  0.40000000 -0.00000000       0.003
  -0.30000000  0.40000000 -0.00000000       0.003
  -0.20000000  0.40000000 -0.00000000       0.003
  -0.10000000  0.40000000  0.00000000       0.003
  -0.00000000  0.50000000  0.00000000       0.001
   0.10000000  0.50000000  0.00000000       0.003
   0.20000000  0.50000000  0.00000000       0.003
   0.30000000  0.50000000  0.00000000       0.003
   0.40000000  0.50000000  0.00000000       0.003
   0.50000000  0.50000000  0.00000000       0.001
  -0.00000000  0.00000000  0.14285714       0.003
   0.10000000  0.00000000  0.14285714       0.003
   0.20000000 -0.00000000  0.14285714       0.003
   0.30000000  0.00000000  0.14285714       0.003
   0.40000000  0.00000000  0.14285714       0.003
   0.50000000 -0.00000000  0.14285714       0.003
  -0.40000000  0.00000000  0.14285714       0.003
  -0.30000000  0.00000000  0.14285714       0.003
  -0.20000000 -0.00000000  0.14285714       0.003
  -0.10000000  0.00000000  0.14285714       0.003
  -0.00000000  0.10000000  0.14285714       0.003
   0.10000000  0.10000000  0.14285714       0.003
   0.20000000  0.10000000  0.14285714       0.003
   0.30000000  0.10000000  0.14285714       0.003
   0.40000000  0.10000000  0.14285714       0.003
   0.50000000  0.10000000  0.14285714       0.003
  -0.40000000  0.10000000  0.14285714       0.003
  -0.30000000  0.10000000  0.14285714       0.003
  -0.20000000  0.10000000  0.14285714       0.003
  -0.10000000  0.10000000  0.14285714       0.003
  -0.00000000  0.20000000  0.14285714       0.003
   0.10000000  0.20000000  0.14285714       0.003
   0.20000000  0.20000000  0.14285714       0.003
   0.30000000  0.20000000  0.14285714       0.003
   0.40000000  0.20000000  0.14285714       0.003
   0.50000000  0.20000000  0.14285714       0.003
  -0.40000000  0.20000000  0.14285714       0.003
  -0.30000000  0.20000000  0.14285714       0.003
  -0.20000000  0.20000000  0.14285714       0.003
  -0.10000000  0.20000000  0.14285714       0.003
  -0.00000000  0.30000000  0.14285714       0.003
   0.10000000  0.30000000  0.14285714       0.003
   0.20000000  0.30000000  0.14285714       0.003
   0.30000000  0.30000000  0.14285714       0.003
   0.40000000  0.30000000  0.14285714       0.003
   0.50000000  0.30000000  0.14285714       0.003
  -0.40000000  0.30000000  0.14285714       0.003
  -0.30000000  0.30000000  0.14285714       0.003
  -0.20000000  0.30000000  0.14285714       0.003
  -0.10000000  0.30000000  0.14285714       0.003
  -0.00000000  0.40000000  0.14285714       0.003
   0.10000000  0.40000000  0.14285714       0.003
   0.20000000  0.40000000  0.14285714       0.003
   0.30000000  0.40000000  0.14285714       0.003
   0.40000000  0.40000000  0.14285714       0.003
   0.50000000  0.40000000  0.14285714       0.003
  -0.40000000  0.40000000  0.14285714       0.003
  -0.30000000  0.40000000  0.14285714       0.003
  -0.20000000  0.40000000  0.14285714       0.003
  -0.10000000  0.40000000  0.14285714       0.003
  -0.00000000  0.50000000  0.14285714       0.003
   0.10000000  0.50000000  0.14285714       0.003
   0.20000000  0.50000000  0.14285714       0.003
   0.30000000  0.50000000  0.14285714       0.003
   0.40000000  0.50000000  0.14285714       0.003
   0.50000000  0.50000000  0.14285714       0.003
  -0.40000000  0.50000000  0.14285714       0.003
  -0.30000000  0.50000000  0.14285714       0.003
  -0.20000000  0.50000000  0.14285714       0.003
  -0.10000000  0.50000000  0.14285714       0.003
   0.00000000 -0.40000000  0.14285714       0.003
   0.10000000 -0.40000000  0.14285714       0.003
   0.20000000 -0.40000000  0.14285714       0.003
   0.30000000 -0.40000000  0.14285714       0.003
   0.40000000 -0.40000000  0.14285714       0.003
[...]
      2     -15.9177      2.00000
      3      -4.0680      2.00000
      4      -3.9830      2.00000
      5      -1.0377      2.00000
      6      -0.5982      2.00000
      7      -0.3123      2.00000
      8      -0.0346      2.00000
      9       4.3188      2.00000
     10       4.5973      2.00000
     11       4.6746      2.00000
     12       5.7294      0.29873
     13       5.9926      0.00000
     14       9.9236      0.00000
     15      11.8325      0.00000
     16      13.2984      0.00000

 k-point   339 :      -0.4000   -0.2000    0.4286
  band No.  band energies     occupation 
      1     -15.9448      2.00000
      2     -15.8815      2.00000
      3      -4.0940      2.00000
      4      -3.9183      2.00000
      5      -1.2420      2.00000
      6      -0.5946      2.00000
      7      -0.3761      2.00000
      8      -0.0856      2.00000
      9       4.3023      2.00000
     10       4.6435      2.00000
     11       4.6488      2.00000
     12       5.7885      0.06086
     13       6.0050      0.00000
     14      10.5964      0.00000
     15      10.9241      0.00000
     16      13.0962      0.00000

 k-point   340 :      -0.3000   -0.2000    0.4286
  band No.  band energies     occupation 
      1     -16.0044      2.00000
      2     -15.8895      2.00000
      3      -4.1771      2.00000
      4      -3.8783      2.00000
      5      -1.0664      2.00000
      6      -0.5664      2.00000
      7      -0.3362      2.00000
      8       0.0079      2.00000
      9       4.3227      2.00000
     10       4.5962      2.00000
     11       4.6732      2.00000
     12       5.6843      0.68796
     13       5.9931      0.00000
     14      10.0416      0.00000
     15      11.7057      0.00000
     16      13.2446      0.00000

 k-point   341 :      -0.2000   -0.2000    0.4286
  band No.  band energies     occupation 
      1     -16.1166      2.00000
      2     -15.9559      2.00000
      3      -4.2550      2.00000
      4      -3.8449      2.00000
      5      -0.6435      2.00000
      6      -0.5439      2.00000
      7      -0.1937      2.00000
      8       0.1806      2.00000
      9       4.3482      2.00000
     10       4.5354      2.00000
     11       4.7031      2.00000
     12       5.5258      1.93428
     13       6.0055      0.00000
     14       9.4569      0.00000
     15      12.7081      0.00000
     16      13.8035      0.00000

 k-point   342 :      -0.1000   -0.2000    0.4286
  band No.  band energies     occupation 
      1     -16.2566      2.00000
      2     -16.0342      2.00000
      3      -4.3383      2.00000
      4      -3.7208      2.00000
      5      -0.5346      2.00000
      6      -0.2285      2.00000
      7      -0.1470      2.00000
      8       0.5166      2.00000
      9       4.2788      2.00000
     10       4.5402      2.00000
     11       4.6987      2.00000
     12       5.4772      1.98850
     13       6.1182      0.00000
     14       8.9747      0.00000
     15      12.9906      0.00000
     16      13.4391      0.00000

 k-point   343 :      -0.0000   -0.1000    0.4286
  band No.  band energies     occupation 
      1     -16.5243      2.00000
      2     -16.1490      2.00000
      3      -4.5137      2.00000
      4      -3.2396      2.00000
      5      -0.6583      2.00000
      6      -0.5773      2.00000
      7       0.9768      2.00000
      8       1.1319      2.00000
      9       4.2565      2.00000
     10       4.3479      2.00000
     11       4.5019      2.00000
     12       6.0218      0.00000
     13       6.3518      0.00000
     14       8.1056      0.00000
     15      11.4362      0.00000
     16      13.5999      0.00000

 k-point   344 :       0.1000   -0.1000    0.4286
  band No.  band energies     occupation 
      1     -16.5262      2.00000
      2     -16.1468      2.00000
      3      -4.5190      2.00000
      4      -3.2370      2.00000
      5      -0.6789      2.00000
      6      -0.5475      2.00000
      7       0.9315      2.00000
      8       1.1756      2.00000
      9       4.2717      2.00000
     10       4.3439      2.00000
     11       4.4970      2.00000
     12       6.0158      0.00000
     13       6.3210      0.00000
     14       8.1455      0.00000
     15      11.4210      0.00000
     16      13.6089      0.00000

 k-point   345 :       0.2000   -0.1000    0.4286
  band No.  band energies     occupation 
      1     -16.4273      2.00000
      2     -16.1009      2.00000
      3      -4.4604      2.00000
      4      -3.4457      2.00000
      5      -0.6166      2.00000
      6      -0.3608      2.00000
      7       0.4738      2.00000
      8       0.9035      2.00000
      9       4.3459      2.00000
     10       4.3813      2.00000
     11       4.6168      2.00000
     12       5.6533      1.02909
     13       6.2274      0.00000
     14       8.5598      0.00000
     15      12.0217      0.00000
     16      13.9116      0.00000

 k-point   346 :       0.3000   -0.1000    0.4286
  band No.  band energies     occupation 
      1     -16.2568      2.00000
      2     -16.0342      2.00000
      3      -4.3389      2.00000
      4      -3.7201      2.00000
      5      -0.5349      2.00000
      6      -0.2289      2.00000
      7      -0.1463      2.00000
      8       0.5171      2.00000
      9       4.2789      2.00000
     10       4.5398      2.00000
     11       4.6988      2.00000
     12       5.4770      1.98862
     13       6.1187      0.00000
     14       8.9741      0.00000
     15      12.9903      0.00000
     16      13.4399      0.00000

 k-point   347 :       0.4000   -0.1000    0.4286
  band No.  band energies     occupation 
      1     -16.0711      2.00000
      2     -15.9768      2.00000
      3      -4.1685      2.00000
      4      -3.9715      2.00000
      5      -0.7688      2.00000
      6      -0.4843      2.00000
      7      -0.1688      2.00000
      8       0.2055      2.00000
      9       4.2041      2.00000
     10       4.6259      2.00000
     11       4.6986      2.00000
     12       5.5739      1.75371
     13       6.0913      0.00000
     14       9.3617      0.00000
     15      12.2225      0.00000
     16      13.9207      0.00000

 k-point   348 :       0.5000   -0.1000    0.4286
  band No.  band energies     occupation 
      1     -15.9748      2.00000
      2     -15.9183      2.00000
      3      -4.1680      2.00000
      4      -3.9929      2.00000
      5      -1.1616      2.00000
      6      -0.4633      2.00000
      7      -0.1387      2.00000
      8       0.0312      2.00000
      9       4.1604      2.00000
     10       4.6551      2.00000
     11       4.6781      2.00000
     12       5.6891      0.63865
     13       6.1127      0.00000
     14       9.9059      0.00000
     15      11.1000      0.00000
     16      13.8644      0.00000

 k-point   349 :      -0.4000   -0.1000    0.4286
  band No.  band energies     occupation 
      1     -16.0144      2.00000
      2     -15.8772      2.00000
      3      -4.2841      2.00000
      4      -3.8836      2.00000
      5      -1.1942      2.00000
      6      -0.4371      2.00000
      7      -0.1652      2.00000
      8       0.1007      2.00000
      9       4.1684      2.00000
     10       4.6542      2.00000
     11       4.6715      2.00000
     12       5.6218      1.37022
     13       6.1058      0.00000
     14      10.2065      0.00000
     15      10.8207      0.00000
     16      13.7715      0.00000

 k-point   350 :      -0.3000   -0.1000    0.4286
  band No.  band energies     occupation 
      1     -16.1210      2.00000
      2     -15.9239      2.00000
      3      -4.3405      2.00000
      4      -3.8143      2.00000
      5      -0.8512      2.00000
      6      -0.4712      2.00000
      7      -0.1168      2.00000
      8       0.2980      2.00000
      9       4.2243      2.00000
     10       4.6215      2.00000
     11       4.6935      2.00000
     12       5.4371      1.99803
     13       6.0717      0.00000
     14       9.6075      0.00000
     15      12.0298      0.00000
     16      13.7456      0.00000

 k-point   351 :      -0.2000   -0.1000    0.4286
  band No.  band energies     occupation 
      1     -16.2740      2.00000
      2     -16.0152      2.00000
      3      -4.3923      2.00000
      4      -3.6771      2.00000
      5      -0.5495      2.00000
      6      -0.2797      2.00000
      7      -0.0933      2.00000
      8       0.5753      2.00000
      9       4.3013      2.00000
     10       4.5384      2.00000
     11       4.6990      2.00000
     12       5.3855      1.99987
     13       6.0956      0.00000
     14       9.0996      0.00000
     15      12.8877      0.00000
     16      13.5102      0.00000

 k-point   352 :      -0.1000   -0.1000    0.4286
  band No.  band energies     occupation 
      1     -16.4271      2.00000
      2     -16.1009      2.00000
      3      -4.4599      2.00000
      4      -3.4463      2.00000
      5      -0.6168      2.00000
      6      -0.3605      2.00000
      7       0.4740      2.00000
      8       0.9026      2.00000
      9       4.3458      2.00000
     10       4.3820      2.00000
     11       4.6163      2.00000
     12       5.6534      1.02793
     13       6.2270      0.00000
     14       8.5604      0.00000
     15      12.0220      0.00000
     16      13.9106      0.00000


--------------------------------------------------------------------------------------------------------


 soft charge-density along one line, spin component           1
         0         1         2         3         4         5         6         7         8         9
 total charge-density along one line
 
 pseudopotential strength for first ion, spin component:           1
 -3.191   0.000   0.000   0.123  -0.000  -3.739   0.000   0.000
  0.000  -3.220  -0.000  -0.000   0.123   0.000  -3.767  -0.000
  0.000  -0.000  -3.045   0.000  -0.000   0.000  -0.000  -3.599
  0.123  -0.000   0.000  -3.220   0.000   0.118  -0.000   0.000
 -0.000   0.123  -0.000   0.000  -3.191  -0.000   0.118  -0.000
 -3.739   0.000   0.000   0.118  -0.000  -4.230   0.000   0.000
  0.000  -3.767  -0.000  -0.000   0.118   0.000  -4.257  -0.000
  0.000  -0.000  -3.599   0.000  -0.000   0.000  -0.000  -4.096
  0.118  -0.000   0.000  -3.767   0.000   0.114  -0.000   0.000
 -0.000   0.118  -0.000   0.000  -3.739  -0.000   0.114  -0.000
  0.000   0.000  -0.009  -0.000  -0.000   0.000   0.000  -0.009
  0.000   0.000  -0.017  -0.000  -0.000   0.000   0.000  -0.017
  0.000  -0.000   0.000  -0.000   0.000   0.000  -0.000   0.000
 -0.000  -0.000  -0.000   0.000   0.000  -0.000  -0.000  -0.000
 -0.000  -0.000  -0.000  -0.000   0.000  -0.000  -0.000  -0.000
  0.000  -0.000   0.000  -0.000   0.000   0.000  -0.000   0.000
 -0.000  -0.000  -0.000   0.000   0.000  -0.000  -0.000  -0.000
 -0.000  -0.000  -0.000  -0.000   0.000  -0.000  -0.000  -0.000
 total augmentation occupancy for first ion, spin component:           1
  5.474  -0.000  -0.001  -0.680  -0.001  -3.794   0.001   0.001   1.739  -0.000  -0.001   0.000   0.000   0.000   0.000   0.000
 -0.000   4.491   0.000  -0.001  -0.680   0.001  -3.473  -0.000   0.000   1.712  -0.001   0.000   0.000   0.000   0.000   0.000
 -0.001   0.000   3.856  -0.000   0.001   0.001  -0.000  -1.495   0.000  -0.000   0.694  -0.171   0.000   0.000   0.000   0.000
 -0.680  -0.001  -0.000   4.493  -0.000   1.711   0.000   0.000  -3.473   0.001   0.002  -0.000   0.000   0.000   0.000   0.000
 -0.001  -0.680   0.001  -0.000   5.473  -0.000   1.740  -0.000   0.001  -3.794   0.001  -0.000   0.000   0.000   0.000   0.000
 -3.794   0.001   0.001   1.711  -0.000   3.712  -0.001  -0.000  -2.244   0.001   0.001  -0.000   0.000   0.000   0.000   0.000
  0.001  -3.473  -0.000   0.000   1.740  -0.001   3.749   0.000   0.001  -2.246   0.001  -0.000   0.000   0.000   0.000   0.000
  0.001  -0.000  -1.495   0.000  -0.000  -0.000   0.000   1.135  -0.000   0.000  -0.597   0.172   0.000   0.000   0.000   0.000
  1.739   0.000   0.000  -3.473   0.001  -2.244   0.001  -0.000   3.749  -0.001  -0.002   0.000   0.000   0.000   0.000   0.000
 -0.000   1.712  -0.000   0.001  -3.794   0.001  -2.246   0.000  -0.001   3.713  -0.001   0.000   0.000   0.000   0.000   0.000
 -0.001  -0.001   0.694   0.002   0.001   0.001   0.001  -0.597  -0.002  -0.001   2.280  -0.484   0.000   0.000   0.000   0.000
  0.000   0.000  -0.171  -0.000  -0.000  -0.000  -0.000   0.172   0.000   0.000  -0.484   0.116   0.000   0.000   0.000   0.000
  0.000   0.000   0.000   0.000   0.000   0.000   0.000   0.000   0.000   0.000   0.000   0.000   0.348   0.000   0.000  -0.063
  0.000   0.000   0.000   0.000   0.000   0.000   0.000   0.000   0.000   0.000   0.000   0.000   0.000   0.264  -0.000  -0.000
  0.000   0.000   0.000   0.000   0.000   0.000   0.000   0.000   0.000   0.000   0.000   0.000   0.000  -0.000   0.348  -0.000
  0.000   0.000   0.000   0.000   0.000   0.000   0.000   0.000   0.000   0.000   0.000   0.000  -0.063  -0.000  -0.000   0.013
  0.000   0.000   0.000   0.000   0.000   0.000   0.000   0.000   0.000   0.000   0.000   0.000  -0.000  -0.043   0.000   0.000
  0.000   0.000   0.000   0.000   0.000   0.000   0.000   0.000   0.000   0.000   0.000   0.000  -0.000   0.000  -0.063   0.000


------------------------ aborting loop because EDIFF is reached ----------------------------------------


    CHARGE:  cpu time    0.2448: real time    0.2458
    FORLOC:  cpu time    0.0004: real time    0.0004
    FORNL :  cpu time    0.2614: real time    0.2623
    STRESS:  cpu time    1.4316: real time    1.4377
    FORCOR:  cpu time    0.0058: real time    0.0058
    FORHAR:  cpu time    0.0017: real time    0.0017
    MIXING:  cpu time    0.0005: real time    0.0005
    OFIELD:  cpu time    0.0000: real time    0.0000

  FORCE on cell =-STRESS in cart. coord.  units (eV):
  Direction    XX          YY          ZZ          XY          YZ          ZX
  --------------------------------------------------------------------------------------
  Alpha Z    59.61175    59.61175    59.61175
  Ewald    -285.09385  -285.01124  -646.51584     0.06125     0.06890    -0.14896
  Hartree   298.06833   298.10549   -52.08483     0.02694     0.03118    -0.05826
  E(xc)    -112.16727  -112.16695  -111.75749     0.00027     0.00022    -0.00058
  Local    -438.56067  -438.67916   309.59600    -0.08790    -0.09308     0.18519
  n-local   -62.95481   -62.95413   -64.18693     0.00022     0.00208    -0.00263
  augment   170.86103   170.85654   170.27094    -0.00274    -0.00538     0.00870
  Kinetic   370.59850   370.59301   334.58888    -0.00401    -0.00373     0.01686
  Fock        0.00000     0.00000     0.00000     0.00000     0.00000     0.00000
  -------------------------------------------------------------------------------------
  Total       0.36299     0.35531    -0.47752    -0.00598     0.00018     0.00032
  in kB      15.34127    15.01652   -20.18139    -0.25273     0.00772     0.01360
  external pressure =        3.39 kB  Pullay stress =        0.00 kB


 VOLUME and BASIS-vectors are now :
 -----------------------------------------------------------------------------
  energy-cutoff  :      400.00
  volume of cell :       37.91
      direct lattice vectors                 reciprocal lattice vectors
     3.087493496 -0.000434926  0.000007705     0.323913675  0.187074740  0.000000966
    -1.544123409  2.673598197 -0.000028874     0.000052692  0.374058213  0.000003545
     0.000011432 -0.000043523  4.592846742    -0.000000543  0.000002038  0.217729887

  length of vectors
     3.087493526  3.087465696  4.592846742     0.374054845  0.374058217  0.217729887


 FORCES acting on ions
    electron-ion (+dipol)            ewald-force                    non-local-force                 convergence-correction
 -----------------------------------------------------------------------------------------------
   0.100E-06 -.180E-07 -.110E-07   -.938E-06 0.173E-06 0.226E-06   -.413E-23 -.210E-25 0.000E+00   0.596E-11 -.736E-12 -.184E-09
   -.383E-01 0.338E-01 0.187E+03   0.475E-01 -.447E-01 -.161E+03   -.815E-02 0.105E-01 -.263E+02   -.480E-03 0.278E-03 0.234E-02
   0.383E-01 -.338E-01 -.187E+03   -.475E-01 0.447E-01 0.161E+03   0.815E-02 -.105E-01 0.263E+02   0.480E-03 -.278E-03 -.234E-02
   -.682E-02 -.460E-02 0.779E+02   0.711E-02 0.522E-02 -.854E+02   -.109E-02 -.483E-03 0.771E+01   -.104E-04 0.606E-05 0.150E-03
   0.682E-02 0.460E-02 -.779E+02   -.711E-02 -.522E-02 0.854E+02   0.109E-02 0.483E-03 -.771E+01   0.104E-04 -.606E-05 -.150E-03
 -----------------------------------------------------------------------------------------------
   0.801E-05 -.160E-05 0.654E-05   -.466E-14 0.951E-15 0.142E-13   -.217E-18 0.000E+00 0.000E+00   0.538E-10 -.121E-10 -.197E-09
 
 
 POSITION                                       TOTAL-FORCE (eV/Angst)
 -----------------------------------------------------------------------------------
     -0.00000     -0.00000      0.00000         0.000000     -0.000000     -0.000000
      1.54361      0.89088      3.64554         0.000566     -0.000158     -0.131370
     -0.00023      1.78224      0.94728        -0.000566      0.000158      0.131370
      1.54374      0.89095      2.65828        -0.000824      0.000144      0.135046
     -0.00035      1.78217      1.93454         0.000824     -0.000144     -0.135046
 -----------------------------------------------------------------------------------
    total drift:                                0.000008     -0.000002      0.000007


--------------------------------------------------------------------------------------------------------



  FREE ENERGIE OF THE ION-ELECTRON SYSTEM (eV)
  ---------------------------------------------------
  free  energy   TOTEN  =       -27.22032383 eV

  energy  without entropy=      -27.19340123  energy(sigma->0) =      -27.20686253
 
 d Force = 0.1324064E+00[-0.976E-02, 0.275E+00]  d Energy = 0.3453309E+00-0.213E+00
 d Force = 0.6294329E+01[ 0.572E+01, 0.686E+01]  d Ewald  =-0.3049289E+02 0.368E+02


--------------------------------------------------------------------------------------------------------


    POTLOK:  cpu time    0.0090: real time    0.0091


--------------------------------------------------------------------------------------------------------


 stress matrix after NEB project (eV)
      0.36299     -0.00598      0.00032
     -0.00598      0.35531      0.00018
      0.00032      0.00018     -0.47752
  FORCES: max atom, RMS     0.135049    0.119158
  FORCE total and by dimension    0.266446    0.135046
  Stress total and by dimension    0.697212    0.477518


--------------------------------------------------------------------------------------------------------


  
 reached required accuracy - stopping structural energy minimisation
     LOOP+:  cpu time   43.7875: real time   44.0148
    4ORBIT:  cpu time    0.0000: real time    0.0000

 total amount of memory used by VASP MPI-rank0    68023. kBytes
=======================================================================

   base      :      30000. kBytes
   nonl-proj :      32254. kBytes
   fftplans  :        157. kBytes
   grid      :        265. kBytes
   one-center:         31. kBytes
   wavefun   :       5316. kBytes
 
  
  
 General timing and accounting informations for this job:
 ========================================================
  
                  Total CPU time used (sec):      273.081
                            User time (sec):      268.123
                          System time (sec):        4.958
                         Elapsed time (sec):      274.644
  
                   Maximum memory used (kb):       84700.
                   Average memory used (kb):           0.
  
                          Minor page faults:        34255
                          Major page faults:           19
                 Voluntary context switches:          553
