 vasp.5.4.4.18Apr17-6-g9f103f2a35 (build Apr 13 2025 12:23:30) complex          
  
 executed on             LinuxIFC date 2025.04.17  14:57:41
 running on   16 total cores
 distrk:  each k-point on   16 cores,    1 groups
 distr:  one band on NCORES_PER_BAND=   4 cores,    4 groups


--------------------------------------------------------------------------------------------------------


 INCAR:
 POTCAR:    PAW_PBE Co 02Aug2007                  
 POTCAR:    PAW_PBE O 08Apr2002                   
 POTCAR:    PAW_PBE Co 02Aug2007                  
   SHA256 =  0e690c60710354995174544f52f9f2c30879afabeffe3b3fbd4001cb294e56d4 Co
   COPYR  = (c) Copyright 02Aug2007 Georg Kresse                                
   COPYR  = This file is part of the software VASP. Any use, copying, and all ot
   COPYR  = If you do not have a valid VASP license, you may not use, copy or di
   VRHFIN =Co: d8 s1                                                            
   LEXCH  = PE                                                                  
   EATOM  =   813.3670 eV,   59.7808 Ry                                         
                                                                                
   TITEL  = PAW_PBE Co 02Aug2007                                                
   LULTRA =        F    use ultrasoft PP ?                                      
   IUNSCR =        1    unscreen: 0-lin 1-nonlin 2-no                           
   RPACOR =    2.000    partial core radius                                     
   POMASS =   58.933; ZVAL   =    9.000    mass and valenz                      
   RCORE  =    2.300    outmost cutoff radius                                   
   RWIGS  =    2.460; RWIGS  =    1.302    wigner-seitz radius (au A)           
   ENMAX  =  267.968; ENMIN  =  200.976 eV                                      
   RCLOC  =    1.203    cutoff for local pot                                    
   LCOR   =        T    correct aug charges                                     
   LPAW   =        T    paw PP                                                  
   EAUG   =  477.818                                                            
   DEXC   =    0.000                                                            
   RMAX   =    2.360    core radius for proj-oper                               
   RAUG   =    1.300    factor for augmentation sphere                          
   RDEP   =    2.393    radius for radial grids                                 
   RDEPT  =    1.864    core radius for aug-charge                              
                                                                                
   Atomic configuration                                                         
    9 entries                                                                   
     n  l   j            E        occ.                                          
     1  0  0.50     -7587.6674   2.0000                                         
     2  0  0.50      -893.6084   2.0000                                         
     2  1  1.50      -764.5805   6.0000                                         
     3  0  0.50       -97.5973   2.0000                                         
     3  1  1.50       -60.9648   6.0000                                         
     3  2  2.50        -4.2382   8.0000                                         
     4  0  0.50        -4.3746   1.0000                                         
     4  1  1.50        -4.0817   0.0000                                         
     4  3  2.50        -1.3606   0.0000                                         
   Description                                                                  
     l       E           TYP  RCUT    TYP  RCUT                                 
     2     -4.2382362     23  2.300                                             
     2     -5.5988188     23  2.300                                             
     0     -4.3745797     23  2.300                                             
     0      5.7660125     23  2.300                                             
     1     -2.7211652     23  2.300                                             
     1     16.9860234     23  2.300                                             
  local pseudopotential read in
  partial core-charges read in
  partial kinetic energy density read in
  atomic valenz-charges read in
  non local Contribution for L=           2  read in
    real space projection operators read in
  non local Contribution for L=           2  read in
    real space projection operators read in
  non local Contribution for L=           0  read in
    real space projection operators read in
  non local Contribution for L=           0  read in
    real space projection operators read in
  non local Contribution for L=           1  read in
    real space projection operators read in
  non local Contribution for L=           1  read in
    real space projection operators read in
    PAW grid and wavefunctions read in
 
   number of l-projection  operators is LMAX  =           6
   number of lm-projection operators is LMMAX =          18
 
 POTCAR:    PAW_PBE O 08Apr2002                   
   SHA256 =  818f92134a0a090dccd8ba1447fa70422a3b330e708bb4f08108d8ae51209ddf O/
   COPYR  = (c) Copyright 08Apr2002 Georg Kresse                                
   COPYR  = This file is part of the software VASP. Any use, copying, and all ot
   COPYR  = If you do not have a valid VASP license, you may not use, copy or di
   VRHFIN =O: s2p4                                                              
   LEXCH  = PE                                                                  
   EATOM  =   432.3788 eV,   31.7789 Ry                                         
                                                                                
   TITEL  = PAW_PBE O 08Apr2002                                                 
   LULTRA =        F    use ultrasoft PP ?                                      
   IUNSCR =        1    unscreen: 0-lin 1-nonlin 2-no                           
   RPACOR =    1.200    partial core radius                                     
   POMASS =   16.000; ZVAL   =    6.000    mass and valenz                      
   RCORE  =    1.520    outmost cutoff radius                                   
   RWIGS  =    1.550; RWIGS  =    0.820    wigner-seitz radius (au A)           
   ENMAX  =  400.000; ENMIN  =  300.000 eV                                      
   ICORE  =        2    local potential                                         
   LCOR   =        T    correct aug charges                                     
   LPAW   =        T    paw PP                                                  
   EAUG   =  605.392                                                            
   DEXC   =    0.000                                                            
   RMAX   =    1.553    core radius for proj-oper                               
   RAUG   =    1.300    factor for augmentation sphere                          
   RDEP   =    1.550    radius for radial grids                                 
   RDEPT  =    1.329    core radius for aug-charge                              
                                                                                
   Atomic configuration                                                         
    4 entries                                                                   
     n  l   j            E        occ.                                          
     1  0  0.50      -514.6923   2.0000                                         
     2  0  0.50       -23.9615   2.0000                                         
     2  1  0.50        -9.0305   4.0000                                         
     3  2  1.50        -9.5241   0.0000                                         
   Description                                                                  
     l       E           TYP  RCUT    TYP  RCUT                                 
     0    -23.9615318     23  1.200                                             
     0     -9.5240782     23  1.200                                             
     1     -9.0304911     23  1.520                                             
     1      8.1634956     23  1.520                                             
     2     -9.5240782      7  1.500                                             
  local pseudopotential read in
  partial core-charges read in
  partial kinetic energy density read in
  kinetic energy density of atom read in
  atomic valenz-charges read in
  non local Contribution for L=           0  read in
    real space projection operators read in
  non local Contribution for L=           0  read in
    real space projection operators read in
  non local Contribution for L=           1  read in
    real space projection operators read in
  non local Contribution for L=           1  read in
    real space projection operators read in
    PAW grid and wavefunctions read in
 
   number of l-projection  operators is LMAX  =           4
   number of lm-projection operators is LMMAX =           8
 
  PAW_PBE Co 02Aug2007                  :
 energy of atom  1       EATOM= -813.3670
 kinetic energy error for atom=    0.0093 (will be added to EATOM!!)
  PAW_PBE O 08Apr2002                   :
 energy of atom  2       EATOM= -432.3788
 kinetic energy error for atom=    0.1156 (will be added to EATOM!!)
 
 
 POSCAR: Co O                                    
  positions in cartesian coordinates
  No initial velocities read in
 exchange correlation table for  LEXCH =        8
   RHO(1)=    0.500       N(1)  =     2000
   RHO(2)=  100.500       N(2)  =     4000

 VTST: version 3.2, (02/03/18)

 CHAIN: initializing optimizer
 
 OPT: Using VASP Conjugate-Gradient optimizer
 CHAIN: Read ICHAIN            0
 
 POSCAR: Co O                                    
  positions in cartesian coordinates
  No initial velocities read in
 


--------------------------------------------------------------------------------------------------------


 ion  position               nearest neighbor table
   1  0.000  0.000  0.000-   6 2.15   7 2.15   8 2.15   8 2.15   7 2.15   6 2.15   2 3.03   3 3.03
                             4 3.03   2 3.03   4 3.03   3 3.03   3 3.03   4 3.03   2 3.03   2 3.03
   2  0.000  0.500  0.500-   5 2.15   7 2.15   8 2.15   7 2.15   8 2.15   5 2.15   3 3.03   4 3.03
                             1 3.03   3 3.03   1 3.03   1 3.03   3 3.03   4 3.03   4 3.03   1 3.03
   3  0.500  0.000  0.500-   5 2.15   6 2.15   8 2.15   6 2.15   8 2.15   5 2.15   2 3.03   4 3.03
                             1 3.03   2 3.03   1 3.03   1 3.03   2 3.03   4 3.03   4 3.03   2 3.03
   4  0.500  0.500  0.000-   5 2.15   6 2.15   7 2.15   6 2.15   7 2.15   5 2.15   2 3.03   3 3.03
                             1 3.03   2 3.03   1 3.03   1 3.03   2 3.03   3 3.03   3 3.03   2 3.03
   5  0.500  0.500  0.500-   2 2.15   3 2.15   4 2.15   2 2.15   3 2.15   4 2.15
   6  0.500  0.000  0.000-   1 2.15   3 2.15   4 2.15   1 2.15   3 2.15   4 2.15
   7  0.000  0.500  0.000-   1 2.15   2 2.15   4 2.15   1 2.15   2 2.15   4 2.15
   8  0.000  0.000  0.500-   1 2.15   2 2.15   3 2.15   1 2.15   2 2.15   3 2.15
 
  LATTYP: Found a simple cubic cell.
 ALAT       =     4.2918211462
  
  Lattice vectors:
  
 A1 = (   4.2918211462,   0.0000000000,   0.0000000000)
 A2 = (   0.0000000000,   4.2918211462,   0.0000000000)
 A3 = (   0.0000000000,   0.0000000000,   4.2918211462)


Analysis of symmetry for initial positions (statically):
=====================================================================
 Subroutine PRICEL returns following result:
 
  LATTYP: Found a face centered cubic cell.
 ALAT       =     4.2918211462
  
  Lattice vectors:
  
 A1 = (   2.1459105731,   2.1459105731,  -0.0000000000)
 A2 = (   2.1459105731,   0.0000000000,  -2.1459105731)
 A3 = (   0.0000000000,   2.1459105731,  -2.1459105731)
 
   4 primitive cells build up your supercell.
 

 Routine SETGRP: Setting up the symmetry group for a 
 simple cubic supercell.


 Subroutine GETGRP returns: Found 48 space group operations
 (whereof 48 operations were pure point group operations)
 out of a pool of 48 trial point group operations.


The static configuration has the point symmetry O_h .


Analysis of symmetry for dynamics (positions and initial velocities):
=====================================================================
 Subroutine PRICEL returns following result:
 
  LATTYP: Found a face centered cubic cell.
 ALAT       =     4.2918211462
  
  Lattice vectors:
  
 A1 = (   2.1459105731,   2.1459105731,  -0.0000000000)
 A2 = (   2.1459105731,   0.0000000000,  -2.1459105731)
 A3 = (   0.0000000000,   2.1459105731,  -2.1459105731)
 
   4 primitive cells build up your supercell.
 

 Routine SETGRP: Setting up the symmetry group for a 
 simple cubic supercell.


 Subroutine GETGRP returns: Found 48 space group operations
 (whereof 48 operations were pure point group operations)
 out of a pool of 48 trial point group operations.


The dynamic configuration has the point symmetry O_h .


 Subroutine INISYM returns: Found 48 space group operations
 (whereof 48 operations are pure point group operations),
 and found     4 'primitive' translations

 
 
 KPOINTS: KPOINTS created by Atomic Simulation Env

Automatic generation of k-mesh.
Space group operators:
 irot       det(A)        alpha          n_x          n_y          n_z        tau_x        tau_y        tau_z
    1     1.000000     0.000000     1.000000     0.000000     0.000000     0.000000     0.000000     0.000000
    2    -1.000000     0.000000     1.000000     0.000000     0.000000     0.000000     0.000000     0.000000
    3     1.000000   120.000000    -0.577350    -0.577350    -0.577350     0.000000     0.000000     0.000000
    4    -1.000000   120.000000    -0.577350    -0.577350    -0.577350     0.000000     0.000000     0.000000
    5     1.000000   120.000000     0.577350     0.577350     0.577350     0.000000     0.000000     0.000000
    6    -1.000000   120.000000     0.577350     0.577350     0.577350     0.000000     0.000000     0.000000
    7     1.000000    90.000000     0.000000     0.000000    -1.000000     0.000000     0.000000     0.000000
    8    -1.000000    90.000000     0.000000     0.000000    -1.000000     0.000000     0.000000     0.000000
    9     1.000000   180.000000     0.000000     0.707107     0.707107     0.000000     0.000000     0.000000
   10    -1.000000   180.000000     0.000000     0.707107     0.707107     0.000000     0.000000     0.000000
   11     1.000000    90.000000     0.000000     1.000000     0.000000     0.000000     0.000000     0.000000
   12    -1.000000    90.000000     0.000000     1.000000     0.000000     0.000000     0.000000     0.000000
   13     1.000000   180.000000     0.000000     0.000000     1.000000     0.000000     0.000000     0.000000
   14    -1.000000   180.000000     0.000000     0.000000     1.000000     0.000000     0.000000     0.000000
   15     1.000000   120.000000    -0.577350     0.577350     0.577350     0.000000     0.000000     0.000000
   16    -1.000000   120.000000    -0.577350     0.577350     0.577350     0.000000     0.000000     0.000000
   17     1.000000   120.000000    -0.577350     0.577350    -0.577350     0.000000     0.000000     0.000000
   18    -1.000000   120.000000    -0.577350     0.577350    -0.577350     0.000000     0.000000     0.000000
   19     1.000000    90.000000     0.000000     0.000000     1.000000     0.000000     0.000000     0.000000
   20    -1.000000    90.000000     0.000000     0.000000     1.000000     0.000000     0.000000     0.000000
   21     1.000000    90.000000    -1.000000     0.000000     0.000000     0.000000     0.000000     0.000000
   22    -1.000000    90.000000    -1.000000     0.000000     0.000000     0.000000     0.000000     0.000000
   23     1.000000   180.000000     0.707107     0.000000     0.707107     0.000000     0.000000     0.000000
   24    -1.000000   180.000000     0.707107     0.000000     0.707107     0.000000     0.000000     0.000000
   25     1.000000   120.000000     0.577350    -0.577350     0.577350     0.000000     0.000000     0.000000
   26    -1.000000   120.000000     0.577350    -0.577350     0.577350     0.000000     0.000000     0.000000
   27     1.000000   120.000000    -0.577350    -0.577350     0.577350     0.000000     0.000000     0.000000
   28    -1.000000   120.000000    -0.577350    -0.577350     0.577350     0.000000     0.000000     0.000000
   29     1.000000   180.000000     1.000000     0.000000     0.000000     0.000000     0.000000     0.000000
   30    -1.000000   180.000000     1.000000     0.000000     0.000000     0.000000     0.000000     0.000000
   31     1.000000    90.000000     0.000000    -1.000000     0.000000     0.000000     0.000000     0.000000
   32    -1.000000    90.000000     0.000000    -1.000000     0.000000     0.000000     0.000000     0.000000
   33     1.000000   180.000000     0.707107     0.707107     0.000000     0.000000     0.000000     0.000000
   34    -1.000000   180.000000     0.707107     0.707107     0.000000     0.000000     0.000000     0.000000
   35     1.000000    90.000000     1.000000     0.000000     0.000000     0.000000     0.000000     0.000000
   36    -1.000000    90.000000     1.000000     0.000000     0.000000     0.000000     0.000000     0.000000
   37     1.000000   120.000000     0.577350    -0.577350    -0.577350     0.000000     0.000000     0.000000
   38    -1.000000   120.000000     0.577350    -0.577350    -0.577350     0.000000     0.000000     0.000000
   39     1.000000   180.000000     0.000000     1.000000     0.000000     0.000000     0.000000     0.000000
   40    -1.000000   180.000000     0.000000     1.000000     0.000000     0.000000     0.000000     0.000000
   41     1.000000   120.000000     0.577350     0.577350    -0.577350     0.000000     0.000000     0.000000
   42    -1.000000   120.000000     0.577350     0.577350    -0.577350     0.000000     0.000000     0.000000
   43     1.000000   180.000000     0.000000    -0.707107     0.707107     0.000000     0.000000     0.000000
   44    -1.000000   180.000000     0.000000    -0.707107     0.707107     0.000000     0.000000     0.000000
   45     1.000000   180.000000     0.707107    -0.707107     0.000000     0.000000     0.000000     0.000000
   46    -1.000000   180.000000     0.707107    -0.707107     0.000000     0.000000     0.000000     0.000000
   47     1.000000   180.000000     0.707107     0.000000    -0.707107     0.000000     0.000000     0.000000
   48    -1.000000   180.000000     0.707107     0.000000    -0.707107     0.000000     0.000000     0.000000
 
 Subroutine IBZKPT returns following result:
 ===========================================
 
 Found     20 irreducible k-points:
 
 Following reciprocal coordinates:
            Coordinates               Weight
  0.000000  0.000000  0.000000      1.000000
  0.142857  0.000000  0.000000      6.000000
  0.285714  0.000000  0.000000      6.000000
  0.428571  0.000000  0.000000      6.000000
  0.142857  0.142857  0.000000     12.000000
  0.285714  0.142857  0.000000     24.000000
  0.428571  0.142857  0.000000     24.000000
  0.285714  0.285714  0.000000     12.000000
  0.428571  0.285714  0.000000     24.000000
  0.428571  0.428571  0.000000     12.000000
  0.142857  0.142857  0.142857      8.000000
  0.285714  0.142857  0.142857     24.000000
  0.428571  0.142857  0.142857     24.000000
  0.285714  0.285714  0.142857     24.000000
  0.428571  0.285714  0.142857     48.000000
  0.428571  0.428571  0.142857     24.000000
  0.285714  0.285714  0.285714      8.000000
  0.428571  0.285714  0.285714     24.000000
  0.428571  0.428571  0.285714     24.000000
  0.428571  0.428571  0.428571      8.000000
 
 Following cartesian coordinates:
            Coordinates               Weight
  0.000000  0.000000  0.000000      1.000000
  0.033286  0.000000  0.000000      6.000000
  0.066572  0.000000  0.000000      6.000000
  0.099858  0.000000  0.000000      6.000000
  0.033286  0.033286  0.000000     12.000000
  0.066572  0.033286  0.000000     24.000000
  0.099858  0.033286  0.000000     24.000000
  0.066572  0.066572  0.000000     12.000000
  0.099858  0.066572  0.000000     24.000000
  0.099858  0.099858  0.000000     12.000000
  0.033286  0.033286  0.033286      8.000000
  0.066572  0.033286  0.033286     24.000000
  0.099858  0.033286  0.033286     24.000000
  0.066572  0.066572  0.033286     24.000000
  0.099858  0.066572  0.033286     48.000000
  0.099858  0.099858  0.033286     24.000000
  0.066572  0.066572  0.066572      8.000000
  0.099858  0.066572  0.066572     24.000000
  0.099858  0.099858  0.066572     24.000000
  0.099858  0.099858  0.099858      8.000000
 


--------------------------------------------------------------------------------------------------------




 Dimension of arrays:
   k-points           NKPTS =     20   k-points in BZ     NKDIM =     20   number of bands    NBANDS=     36
   number of dos      NEDOS =    301   number of ions     NIONS =      8
   non local maximal  LDIM  =      6   non local SUM 2l+1 LMDIM =     18
   total plane-waves  NPLWV =  13824
   max r-space proj   IRMAX =      1   max aug-charges    IRDMAX=   7095
   dimension x,y,z NGX =    24 NGY =   24 NGZ =   24
   dimension x,y,z NGXF=    48 NGYF=   48 NGZF=   48
   support grid    NGXF=    48 NGYF=   48 NGZF=   48
   ions per type =               4   4
   NGX,Y,Z   is equivalent  to a cutoff of   9.30,  9.30,  9.30 a.u.
   NGXF,Y,Z  is equivalent  to a cutoff of  18.59, 18.59, 18.59 a.u.

 SYSTEM =  unknown system                          
 POSCAR =  Co O                                    

 Startparameter for this run:
   NWRITE =      2    write-flag & timer
   PREC   = normal    normal or accurate (medium, high low for compatibility)
   ISTART =      0    job   : 0-new  1-cont  2-samecut
   ICHARG =      2    charge: 1-file 2-atom 10-const
   ISPIN  =      1    spin polarized calculation?
   LNONCOLLINEAR =      F non collinear calculations
   LSORBIT =      F    spin-orbit coupling
   INIWAV =      1    electr: 0-lowe 1-rand  2-diag
   LASPH  =      F    aspherical Exc in radial PAW
   METAGGA=      F    non-selfconsistent MetaGGA calc.

 Electronic Relaxation 1
   ENCUT  =  400.0 eV  29.40 Ry    5.42 a.u.   7.00  7.00  7.00*2*pi/ulx,y,z
   ENINI  =  400.0     initial cutoff
   ENAUG  =  605.4 eV  augmentation charge cutoff
   NELM   =     60;   NELMIN=  4; NELMDL= -5     # of ELM steps 
   EDIFF  = 0.1E-05   stopping-criterion for ELM
   LREAL  =      F    real-space projection
   NLSPLINE    = F    spline interpolate recip. space projectors
   LCOMPAT=      F    compatible to vasp.4.4
   GGA_COMPAT  = T    GGA compatible to vasp.4.4-vasp.4.6
   LMAXPAW     = -100 max onsite density
   LMAXMIX     =    2 max onsite mixed and CHGCAR
   VOSKOWN=      0    Vosko Wilk Nusair interpolation
   ROPT   =    0.00000   0.00000
 Ionic relaxation
   EDIFFG = 0.1E-01   stopping-criterion for IOM
   NSW    =     20    number of steps for IOM
   NBLOCK =      1;   KBLOCK =     20    inner block; outer block 
   IBRION =      2    ionic relax: 0-MD 1-quasi-New 2-CG
   NFREE  =      1    steps in history (QN), initial steepest desc. (CG)
   ISIF   =      3    stress and relaxation
   IWAVPR =     11    prediction:  0-non 1-charg 2-wave 3-comb
   ISYM   =      2    0-nonsym 1-usesym 2-fastsym
   LCORR  =      T    Harris-Foulkes like correction to forces

   POTIM  = 0.5000    time-step for ionic-motion
   TEIN   =    0.0    initial temperature
   TEBEG  =    0.0;   TEEND  =   0.0 temperature during run
   SMASS  =  -3.00    Nose mass-parameter (am)
   estimated Nose-frequenzy (Omega)   =  0.10E-29 period in steps =****** mass=  -0.421E-27a.u.
   SCALEE = 1.0000    scale energy and forces
   NPACO  =    256;   APACO  = 16.0  distance and # of slots for P.C.
   PSTRESS=    0.0 pullay stress

  Mass of Ions in am
   POMASS =  58.93 16.00
  Ionic Valenz
   ZVAL   =   9.00  6.00
  Atomic Wigner-Seitz radii
   RWIGS  =  -1.00 -1.00
  virtual crystal weights 
   VCA    =   1.00  1.00
   NELECT =      60.0000    total number of electrons
   NUPDOWN=      -1.0000    fix difference up-down

 DOS related values:
   EMIN   =  10.00;   EMAX   =-10.00  energy-range for DOS
   EFERMI =   0.00
   ISMEAR =     0;   SIGMA  =   0.10  broadening in eV -4-tet -1-fermi 0-gaus

 Electronic relaxation 2 (details)
   IALGO  =     38    algorithm
   LDIAG  =      T    sub-space diagonalisation (order eigenvalues)
   LSUBROT=      F    optimize rotation matrix (better conditioning)
   TURBO    =      0    0=normal 1=particle mesh
   IRESTART =      0    0=no restart 2=restart with 2 vectors
   NREBOOT  =      0    no. of reboots
   NMIN     =      0    reboot dimension
   EREF     =   0.00    reference energy to select bands
   IMIX   =      4    mixing-type and parameters
     AMIX     =   0.40;   BMIX     =  1.00
     AMIX_MAG =   1.60;   BMIX_MAG =  1.00
     AMIN     =   0.10
     WC   =   100.;   INIMIX=   1;  MIXPRE=   1;  MAXMIX= -45

 Intra band minimization:
   WEIMIN = 0.0010     energy-eigenvalue tresh-hold
   EBREAK =  0.69E-08  absolut break condition
   DEPER  =   0.30     relativ break condition  

   TIME   =   0.40     timestep for ELM

  volume/ion in A,a.u.               =       9.88        66.69
  Fermi-wavevector in a.u.,A,eV,Ry     =   1.493311  2.821949 30.340694  2.229978
  Thomas-Fermi vector in A             =   2.605728
 
 Write flags
   LWAVE        =      F    write WAVECAR
   LDOWNSAMPLE  =      F    k-point downsampling of WAVECAR
   LCHARG       =      F    write CHGCAR
   LVTOT        =      F    write LOCPOT, total local potential
   LVHAR        =      F    write LOCPOT, Hartree potential only
   LELF         =      F    write electronic localiz. function (ELF)
   LORBIT       =      0    0 simple, 1 ext, 2 COOP (PROOUT), +10 PAW based schemes


 Dipole corrections
   LMONO  =      F    monopole corrections only (constant potential shift)
   LDIPOL =      F    correct potential (dipole corrections)
   IDIPOL =      0    1-x, 2-y, 3-z, 4-all directions 
   EPSILON=  1.0000000 bulk dielectric constant

 Exchange correlation treatment:
   GGA     =    PE    GGA type
   LEXCH   =     8    internal setting for exchange type
   VOSKOWN=      0    Vosko Wilk Nusair interpolation
   LHFCALC =     F    Hartree Fock is set to
   LHFONE  =     F    Hartree Fock one center treatment
   AEXX    =    0.0000 exact exchange contribution

 Linear response parameters
   LEPSILON=     F    determine dielectric tensor
   LRPA    =     F    only Hartree local field effects (RPA)
   LNABLA  =     F    use nabla operator in PAW spheres
   LVEL    =     F    velocity operator in full k-point grid
   LINTERFAST=   F  fast interpolation
   KINTER  =     0    interpolate to denser k-point grid
   CSHIFT  =0.1000    complex shift for real part using Kramers Kronig
   OMEGAMAX=  -1.0    maximum frequency
   DEG_THRESHOLD= 0.2000000E-02 threshold for treating states as degnerate
   RTIME   =   -0.100 relaxation time in fs
  (WPLASMAI=    0.000 imaginary part of plasma frequency in eV, 0.658/RTIME)
   DFIELD  = 0.0000000 0.0000000 0.0000000 field for delta impulse in time
 
 Orbital magnetization related:
   ORBITALMAG=     F  switch on orbital magnetization
   LCHIMAG   =     F  perturbation theory with respect to B field
   DQ        =  0.001000  dq finite difference perturbation B field
   LLRAUG    =     F  two centre corrections for induced B field



--------------------------------------------------------------------------------------------------------


 conjugate gradient relaxation of ions
 charge density and potential will be updated during run
 non-spin polarized calculation
 Variant of blocked Davidson
 Davidson routine will perform the subspace rotation
 perform sub-space diagonalisation
    after iterative eigenvector-optimisation
 modified Broyden-mixing scheme, WC =      100.0
 initial mixing is a Kerker type mixing with AMIX =  0.4000 and BMIX =      1.0000
 Hartree-type preconditioning will be used
 using additional bands            6
 reciprocal scheme for non local part
 use partial core corrections
 calculate Harris-corrections to forces 
   (improved forces if not selfconsistent)
 use gradient corrections 
 use of overlap-Matrix (Vanderbilt PP)
 Gauss-broadening in eV      SIGMA  =   0.10


--------------------------------------------------------------------------------------------------------


  energy-cutoff  :      400.00
  volume of cell :       79.05
      direct lattice vectors                 reciprocal lattice vectors
     4.291821146  0.000000000  0.000000000     0.233001322  0.000000000  0.000000000
     0.000000000  4.291821146  0.000000000     0.000000000  0.233001322  0.000000000
     0.000000000  0.000000000  4.291821146     0.000000000  0.000000000  0.233001322

  length of vectors
     4.291821146  4.291821146  4.291821146     0.233001322  0.233001322  0.233001322


 
 k-points in units of 2pi/SCALE and weight: KPOINTS created by Atomic Simulation Env
   0.00000000  0.00000000  0.00000000       0.003
   0.03328590  0.00000000  0.00000000       0.017
   0.06657181  0.00000000  0.00000000       0.017
   0.09985771  0.00000000  0.00000000       0.017
   0.03328590  0.03328590  0.00000000       0.035
   0.06657181  0.03328590  0.00000000       0.070
   0.09985771  0.03328590  0.00000000       0.070
   0.06657181  0.06657181  0.00000000       0.035
   0.09985771  0.06657181  0.00000000       0.070
   0.09985771  0.09985771  0.00000000       0.035
   0.03328590  0.03328590  0.03328590       0.023
   0.06657181  0.03328590  0.03328590       0.070
   0.09985771  0.03328590  0.03328590       0.070
   0.06657181  0.06657181  0.03328590       0.070
   0.09985771  0.06657181  0.03328590       0.140
   0.09985771  0.09985771  0.03328590       0.070
   0.06657181  0.06657181  0.06657181       0.023
   0.09985771  0.06657181  0.06657181       0.070
   0.09985771  0.09985771  0.06657181       0.070
   0.09985771  0.09985771  0.09985771       0.023
 
 k-points in reciprocal lattice and weights: KPOINTS created by Atomic Simulation Env
   0.00000000  0.00000000  0.00000000       0.003
   0.14285714  0.00000000  0.00000000       0.017
   0.28571429  0.00000000  0.00000000       0.017
   0.42857143  0.00000000  0.00000000       0.017
   0.14285714  0.14285714  0.00000000       0.035
   0.28571429  0.14285714  0.00000000       0.070
   0.42857143  0.14285714  0.00000000       0.070
   0.28571429  0.28571429  0.00000000       0.035
   0.42857143  0.28571429  0.00000000       0.070
   0.42857143  0.42857143  0.00000000       0.035
   0.14285714  0.14285714  0.14285714       0.023
   0.28571429  0.14285714  0.14285714       0.070
   0.42857143  0.14285714  0.14285714       0.070
   0.28571429  0.28571429  0.14285714       0.070
   0.42857143  0.28571429  0.14285714       0.140
   0.42857143  0.42857143  0.14285714       0.070
   0.28571429  0.28571429  0.28571429       0.023
   0.42857143  0.28571429  0.28571429       0.070
   0.42857143  0.42857143  0.28571429       0.070
   0.42857143  0.42857143  0.42857143       0.023
 
 position of ions in fractional coordinates (direct lattice) 
   0.00000000  0.00000000  0.00000000
   0.00000000  0.50000000  0.50000000
   0.50000000  0.00000000  0.50000000
   0.50000000  0.50000000  0.00000000
   0.50000000  0.50000000  0.50000000
   0.50000000  0.00000000  0.00000000
   0.00000000  0.50000000  0.00000000
   0.00000000  0.00000000  0.50000000
 
 position of ions in cartesian coordinates  (Angst):
   0.00000000  0.00000000  0.00000000
   0.00000000  2.14591057  2.14591057
   2.14591057  0.00000000  2.14591057
   2.14591057  2.14591057  0.00000000
   2.14591057  2.14591057  2.14591057
   2.14591057  0.00000000  0.00000000
   0.00000000  2.14591057  0.00000000
   0.00000000  0.00000000  2.14591057
 


--------------------------------------------------------------------------------------------------------


 k-point  1 :   0.0000 0.0000 0.0000  plane waves:    1365
 k-point  2 :   0.1429 0.0000 0.0000  plane waves:    1410
 k-point  3 :   0.2857 0.0000 0.0000  plane waves:    1426
 k-point  4 :   0.4286 0.0000 0.0000  plane waves:    1434
 k-point  5 :   0.1429 0.1429 0.0000  plane waves:    1420
 k-point  6 :   0.2857 0.1429 0.0000  plane waves:    1425
 k-point  7 :   0.4286 0.1429 0.0000  plane waves:    1440
 k-point  8 :   0.2857 0.2857 0.0000  plane waves:    1424
 k-point  9 :   0.4286 0.2857 0.0000  plane waves:    1438
 k-point 10 :   0.4286 0.4286 0.0000  plane waves:    1434
 k-point 11 :   0.1429 0.1429 0.1429  plane waves:    1430
 k-point 12 :   0.2857 0.1429 0.1429  plane waves:    1435
 k-point 13 :   0.4286 0.1429 0.1429  plane waves:    1435
 k-point 14 :   0.2857 0.2857 0.1429  plane waves:    1435
 k-point 15 :   0.4286 0.2857 0.1429  plane waves:    1442
 k-point 16 :   0.4286 0.4286 0.1429  plane waves:    1434
 k-point 17 :   0.2857 0.2857 0.2857  plane waves:    1439
 k-point 18 :   0.4286 0.2857 0.2857  plane waves:    1448
 k-point 19 :   0.4286 0.4286 0.2857  plane waves:    1437
 k-point 20 :   0.4286 0.4286 0.4286  plane waves:    1430

 maximum and minimum number of plane-waves per node :       369      336

 maximum number of plane-waves:      1448
 maximum index in each direction: 
   IXMAX=    6   IYMAX=    6   IZMAX=    6
   IXMIN=   -7   IYMIN=   -7   IZMIN=   -7


 parallel 3D FFT for wavefunctions:
    minimum data exchange during FFTs selected (reduces bandwidth)
 parallel 3D FFT for charge:
    minimum data exchange during FFTs selected (reduces bandwidth)


 total amount of memory used by VASP MPI-rank0    34188. kBytes
=======================================================================

   base      :      30000. kBytes
   nonl-proj :       2143. kBytes
   fftplans  :        347. kBytes
   grid      :        539. kBytes
   one-center:         31. kBytes
   wavefun   :       1128. kBytes
 
     INWAV:  cpu time    0.0000: real time    0.0000
 Broyden mixing: mesh for mixing (old mesh)
   NGX = 13   NGY = 13   NGZ = 13
  (NGX  = 48   NGY  = 48   NGZ  = 48)
  gives a total of   2197 points

 initial charge density was supplied:
 charge density of overlapping atoms calculated
 number of electron      60.0000000 magnetization 
 keeping initial charge density in first step


--------------------------------------------------------------------------------------------------------


 Maximum index for augmentation-charges          450 (set IRDMAX)


--------------------------------------------------------------------------------------------------------


 First call to EWALD:  gamma=   0.413
 Maximum number of real-space cells 3x 3x 3
 Maximum number of reciprocal cells 3x 3x 3

    FEWALD:  cpu time    0.0019: real time    0.0019


--------------------------------------- Iteration      1(   1)  ---------------------------------------


    POTLOK:  cpu time    0.0387: real time    0.0394
    SETDIJ:  cpu time    0.0046: real time    0.0046
     EDDAV:  cpu time    0.8444: real time    0.9310
       DOS:  cpu time    0.0012: real time    0.0012
    --------------------------------------------
      LOOP:  cpu time    0.8888: real time    0.9763

 eigenvalue-minimisations  :  1440
 total energy-change (2. order) : 0.5541505E+03  (-0.2361263E+04)
 number of electron      60.0000000 magnetization 
 augmentation part       60.0000000 magnetization 

 Free energy of the ion-electron system (eV)
  ---------------------------------------------------
  alpha Z        PSCENC =       213.19001967
  Ewald energy   TEWEN  =     -4389.36715041
  -Hartree energ DENC   =      -968.76745796
  -exchange      EXHF   =         0.00000000
  -V(xc)+E(xc)   XCENC  =       175.09995952
  PAW double counting   =      4270.24302607    -4489.55754021
  entropy T*S    EENTRO =        -0.01488250
  eigenvalues    EBANDS =       760.84085215
  atomic energy  EATOM  =      4982.48372054
  Solvation  Ediel_sol  =         0.00000000
  ---------------------------------------------------
  free energy    TOTEN  =       554.15054688 eV

  energy without entropy =      554.16542938  energy(sigma->0) =      554.15798813


--------------------------------------------------------------------------------------------------------




--------------------------------------- Iteration      1(   2)  ---------------------------------------


     EDDAV:  cpu time    0.8362: real time    0.8403
       DOS:  cpu time    0.0012: real time    0.0012
    --------------------------------------------
      LOOP:  cpu time    0.8375: real time    0.8416

 eigenvalue-minimisations  :  1476
 total energy-change (2. order) :-0.5189024E+03  (-0.4957706E+03)
 number of electron      60.0000000 magnetization 
 augmentation part       60.0000000 magnetization 

 Free energy of the ion-electron system (eV)
  ---------------------------------------------------
  alpha Z        PSCENC =       213.19001967
  Ewald energy   TEWEN  =     -4389.36715041
  -Hartree energ DENC   =      -968.76745796
  -exchange      EXHF   =         0.00000000
  -V(xc)+E(xc)   XCENC  =       175.09995952
  PAW double counting   =      4270.24302607    -4489.55754021
  entropy T*S    EENTRO =        -0.03915360
  eigenvalues    EBANDS =       241.96274233
  atomic energy  EATOM  =      4982.48372054
  Solvation  Ediel_sol  =         0.00000000
  ---------------------------------------------------
  free energy    TOTEN  =        35.24816596 eV

  energy without entropy =       35.28731956  energy(sigma->0) =       35.26774276


--------------------------------------------------------------------------------------------------------




--------------------------------------- Iteration      1(   3)  ---------------------------------------


     EDDAV:  cpu time    1.0044: real time    1.0094
       DOS:  cpu time    0.0014: real time    0.0014
    --------------------------------------------
      LOOP:  cpu time    1.0058: real time    1.0107

 eigenvalue-minimisations  :  1808
 total energy-change (2. order) :-0.8853835E+02  (-0.8431600E+02)
 number of electron      60.0000000 magnetization 
 augmentation part       60.0000000 magnetization 

 Free energy of the ion-electron system (eV)
  ---------------------------------------------------
  alpha Z        PSCENC =       213.19001967
  Ewald energy   TEWEN  =     -4389.36715041
  -Hartree energ DENC   =      -968.76745796
  -exchange      EXHF   =         0.00000000
  -V(xc)+E(xc)   XCENC  =       175.09995952
  PAW double counting   =      4270.24302607    -4489.55754021
  entropy T*S    EENTRO =        -0.14375081
  eigenvalues    EBANDS =       153.52898968
  atomic energy  EATOM  =      4982.48372054
  Solvation  Ediel_sol  =         0.00000000
  ---------------------------------------------------
  free energy    TOTEN  =       -53.29018390 eV

  energy without entropy =      -53.14643309  energy(sigma->0) =      -53.21830849


--------------------------------------------------------------------------------------------------------




--------------------------------------- Iteration      1(   4)  ---------------------------------------


     EDDAV:  cpu time    1.0192: real time    1.0242
       DOS:  cpu time    0.0014: real time    0.0014
    --------------------------------------------
      LOOP:  cpu time    1.0206: real time    1.0256

 eigenvalue-minimisations  :  1868
 total energy-change (2. order) :-0.5386042E+01  (-0.5183969E+01)
 number of electron      60.0000000 magnetization 
 augmentation part       60.0000000 magnetization 

 Free energy of the ion-electron system (eV)
  ---------------------------------------------------
  alpha Z        PSCENC =       213.19001967
  Ewald energy   TEWEN  =     -4389.36715041
  -Hartree energ DENC   =      -968.76745796
  -exchange      EXHF   =         0.00000000
  -V(xc)+E(xc)   XCENC  =       175.09995952
  PAW double counting   =      4270.24302607    -4489.55754021
  entropy T*S    EENTRO =        -0.16521256
  eigenvalues    EBANDS =       148.16440993
  atomic energy  EATOM  =      4982.48372054
  Solvation  Ediel_sol  =         0.00000000
  ---------------------------------------------------
  free energy    TOTEN  =       -58.67622541 eV

  energy without entropy =      -58.51101284  energy(sigma->0) =      -58.59361913


--------------------------------------------------------------------------------------------------------




--------------------------------------- Iteration      1(   5)  ---------------------------------------


     EDDAV:  cpu time    1.1443: real time    1.1499
       DOS:  cpu time    0.0015: real time    0.0015
    CHARGE:  cpu time    0.0918: real time    0.0922
    MIXING:  cpu time    0.0005: real time    0.0005
    --------------------------------------------
      LOOP:  cpu time    1.2382: real time    1.2442

 eigenvalue-minimisations  :  2124
 total energy-change (2. order) :-0.2556661E+00  (-0.2334397E+00)
 number of electron      60.0000087 magnetization 
 augmentation part       21.8480834 magnetization 

 Broyden mixing:
  rms(total) = 0.24131E+01    rms(broyden)= 0.24053E+01
  rms(prec ) = 0.50614E+01
  weight for this iteration     100.00

 Free energy of the ion-electron system (eV)
  ---------------------------------------------------
  alpha Z        PSCENC =       213.19001967
  Ewald energy   TEWEN  =     -4389.36715041
  -Hartree energ DENC   =      -968.76745796
  -exchange      EXHF   =         0.00000000
  -V(xc)+E(xc)   XCENC  =       175.09995952
  PAW double counting   =      4270.24302607    -4489.55754021
  entropy T*S    EENTRO =        -0.16504651
  eigenvalues    EBANDS =       147.90857780
  atomic energy  EATOM  =      4982.48372054
  Solvation  Ediel_sol  =         0.00000000
  ---------------------------------------------------
  free energy    TOTEN  =       -58.93189148 eV

  energy without entropy =      -58.76684497  energy(sigma->0) =      -58.84936823


--------------------------------------------------------------------------------------------------------




--------------------------------------- Iteration      1(   6)  ---------------------------------------


    POTLOK:  cpu time    0.0122: real time    0.0125
    SETDIJ:  cpu time    0.0045: real time    0.0045
     EDDAV:  cpu time    1.1335: real time    1.1390
       DOS:  cpu time    0.0015: real time    0.0015
    CHARGE:  cpu time    0.0770: real time    0.0773
    MIXING:  cpu time    0.0005: real time    0.0005
    --------------------------------------------
      LOOP:  cpu time    1.2291: real time    1.2352

 eigenvalue-minimisations  :  2108
 total energy-change (2. order) :-0.5043706E+00  (-0.1282120E+02)
 number of electron      59.9999887 magnetization 
 augmentation part       26.4594030 magnetization 

 Broyden mixing:
  rms(total) = 0.33636E+01    rms(broyden)= 0.33621E+01
  rms(prec ) = 0.68760E+01
  weight for this iteration     100.00

 eigenvalues of (default mixing * dielectric matrix)
  average eigenvalue GAMMA=   0.3819
  0.3819

 Free energy of the ion-electron system (eV)
  ---------------------------------------------------
  alpha Z        PSCENC =       213.19001967
  Ewald energy   TEWEN  =     -4389.36715041
  -Hartree energ DENC   =      -950.00162184
  -exchange      EXHF   =         0.00000000
  -V(xc)+E(xc)   XCENC  =       175.79738205
  PAW double counting   =      4541.48424069    -4737.21866710
  entropy T*S    EENTRO =        -0.02361271
  eigenvalues    EBANDS =       104.21942706
  atomic energy  EATOM  =      4982.48372054
  Solvation  Ediel_sol  =         0.00000000
  ---------------------------------------------------
  free energy    TOTEN  =       -59.43626204 eV

  energy without entropy =      -59.41264933  energy(sigma->0) =      -59.42445568


--------------------------------------------------------------------------------------------------------




--------------------------------------- Iteration      1(   7)  ---------------------------------------


    POTLOK:  cpu time    0.0120: real time    0.0123
    SETDIJ:  cpu time    0.0043: real time    0.0043
     EDDAV:  cpu time    1.1797: real time    1.1854
       DOS:  cpu time    0.0015: real time    0.0015
    CHARGE:  cpu time    0.0788: real time    0.0792
    MIXING:  cpu time    0.0005: real time    0.0005
    --------------------------------------------
      LOOP:  cpu time    1.2769: real time    1.2832

 eigenvalue-minimisations  :  2172
 total energy-change (2. order) : 0.9856510E+01  (-0.5286772E+01)
 number of electron      60.0000044 magnetization 
 augmentation part       23.0792136 magnetization 

 Broyden mixing:
  rms(total) = 0.89484E+00    rms(broyden)= 0.89053E+00
  rms(prec ) = 0.12803E+01
  weight for this iteration     100.00

 eigenvalues of (default mixing * dielectric matrix)
  average eigenvalue GAMMA=   1.1544
  0.3908  1.9180

 Free energy of the ion-electron system (eV)
  ---------------------------------------------------
  alpha Z        PSCENC =       213.19001967
  Ewald energy   TEWEN  =     -4389.36715041
  -Hartree energ DENC   =      -964.54326658
  -exchange      EXHF   =         0.00000000
  -V(xc)+E(xc)   XCENC  =       175.78138433
  PAW double counting   =      4684.87056870    -4901.24199650
  entropy T*S    EENTRO =        -0.12592810
  eigenvalues    EBANDS =       149.37289667
  atomic energy  EATOM  =      4982.48372054
  Solvation  Ediel_sol  =         0.00000000
  ---------------------------------------------------
  free energy    TOTEN  =       -49.57975167 eV

  energy without entropy =      -49.45382357  energy(sigma->0) =      -49.51678762


--------------------------------------------------------------------------------------------------------




--------------------------------------- Iteration      1(   8)  ---------------------------------------


    POTLOK:  cpu time    0.0121: real time    0.0123
    SETDIJ:  cpu time    0.0043: real time    0.0043
     EDDAV:  cpu time    0.9923: real time    0.9971
       DOS:  cpu time    0.0015: real time    0.0015
    CHARGE:  cpu time    0.0816: real time    0.0819
    MIXING:  cpu time    0.0006: real time    0.0006
    --------------------------------------------
      LOOP:  cpu time    1.0924: real time    1.0978

 eigenvalue-minimisations  :  1816
 total energy-change (2. order) :-0.2233065E+00  (-0.7085043E+00)
 number of electron      60.0000026 magnetization 
 augmentation part       23.4952228 magnetization 

 Broyden mixing:
  rms(total) = 0.35973E+00    rms(broyden)= 0.35940E+00
  rms(prec ) = 0.58626E+00
  weight for this iteration     100.00

 eigenvalues of (default mixing * dielectric matrix)
  average eigenvalue GAMMA=   1.1735
  2.4386  0.6926  0.3892

 Free energy of the ion-electron system (eV)
  ---------------------------------------------------
  alpha Z        PSCENC =       213.19001967
  Ewald energy   TEWEN  =     -4389.36715041
  -Hartree energ DENC   =      -950.92428684
  -exchange      EXHF   =         0.00000000
  -V(xc)+E(xc)   XCENC  =       175.23742524
  PAW double counting   =      5012.37501075    -5229.36104646
  entropy T*S    EENTRO =        -0.13111457
  eigenvalues    EBANDS =       136.69436393
  atomic energy  EATOM  =      4982.48372054
  Solvation  Ediel_sol  =         0.00000000
  ---------------------------------------------------
  free energy    TOTEN  =       -49.80305814 eV

  energy without entropy =      -49.67194357  energy(sigma->0) =      -49.73750086


--------------------------------------------------------------------------------------------------------




--------------------------------------- Iteration      1(   9)  ---------------------------------------


    POTLOK:  cpu time    0.0123: real time    0.0125
    SETDIJ:  cpu time    0.0045: real time    0.0045
     EDDAV:  cpu time    1.1537: real time    1.1593
       DOS:  cpu time    0.0015: real time    0.0015
    CHARGE:  cpu time    0.0774: real time    0.0778
    MIXING:  cpu time    0.0006: real time    0.0006
    --------------------------------------------
      LOOP:  cpu time    1.2499: real time    1.2562

 eigenvalue-minimisations  :  2180
 total energy-change (2. order) : 0.2690930E-01  (-0.6845686E-01)
 number of electron      60.0000028 magnetization 
 augmentation part       23.6670488 magnetization 

 Broyden mixing:
  rms(total) = 0.11415E+00    rms(broyden)= 0.11321E+00
  rms(prec ) = 0.25592E+00
  weight for this iteration     100.00

 eigenvalues of (default mixing * dielectric matrix)
  average eigenvalue GAMMA=   1.0497
  2.3908  0.3948  0.7523  0.6608

 Free energy of the ion-electron system (eV)
  ---------------------------------------------------
  alpha Z        PSCENC =       213.19001967
  Ewald energy   TEWEN  =     -4389.36715041
  -Hartree energ DENC   =      -952.60185812
  -exchange      EXHF   =         0.00000000
  -V(xc)+E(xc)   XCENC  =       175.60164166
  PAW double counting   =      5198.21131944    -5417.46740702
  entropy T*S    EENTRO =        -0.08350277
  eigenvalues    EBANDS =       140.25706816
  atomic energy  EATOM  =      4982.48372054
  Solvation  Ediel_sol  =         0.00000000
  ---------------------------------------------------
  free energy    TOTEN  =       -49.77614884 eV

  energy without entropy =      -49.69264608  energy(sigma->0) =      -49.73439746


--------------------------------------------------------------------------------------------------------




--------------------------------------- Iteration      1(  10)  ---------------------------------------


    POTLOK:  cpu time    0.0121: real time    0.0124
    SETDIJ:  cpu time    0.0043: real time    0.0044
     EDDAV:  cpu time    0.9167: real time    0.9213
       DOS:  cpu time    0.0015: real time    0.0015
    CHARGE:  cpu time    0.0777: real time    0.0780
    MIXING:  cpu time    0.0006: real time    0.0006
    --------------------------------------------
      LOOP:  cpu time    1.0130: real time    1.0181

 eigenvalue-minimisations  :  1656
 total energy-change (2. order) : 0.1841704E-01  (-0.1461322E-01)
 number of electron      60.0000028 magnetization 
 augmentation part       23.5452834 magnetization 

 Broyden mixing:
  rms(total) = 0.30081E-01    rms(broyden)= 0.30064E-01
  rms(prec ) = 0.42623E-01
  weight for this iteration     100.00

 eigenvalues of (default mixing * dielectric matrix)
  average eigenvalue GAMMA=   1.1228
  2.5249  1.0092  1.0092  0.3931  0.6774

 Free energy of the ion-electron system (eV)
  ---------------------------------------------------
  alpha Z        PSCENC =       213.19001967
  Ewald energy   TEWEN  =     -4389.36715041
  -Hartree energ DENC   =      -954.39849994
  -exchange      EXHF   =         0.00000000
  -V(xc)+E(xc)   XCENC  =       175.68531564
  PAW double counting   =      5170.32225574    -5390.57869975
  entropy T*S    EENTRO =        -0.09966028
  eigenvalues    EBANDS =       143.00496698
  atomic energy  EATOM  =      4982.48372054
  Solvation  Ediel_sol  =         0.00000000
  ---------------------------------------------------
  free energy    TOTEN  =       -49.75773180 eV

  energy without entropy =      -49.65807151  energy(sigma->0) =      -49.70790166


--------------------------------------------------------------------------------------------------------




--------------------------------------- Iteration      1(  11)  ---------------------------------------


    POTLOK:  cpu time    0.0121: real time    0.0123
    SETDIJ:  cpu time    0.0043: real time    0.0044
     EDDAV:  cpu time    0.9203: real time    0.9248
       DOS:  cpu time    0.0015: real time    0.0015
    CHARGE:  cpu time    0.0779: real time    0.0782
    MIXING:  cpu time    0.0007: real time    0.0007
    --------------------------------------------
      LOOP:  cpu time    1.0168: real time    1.0219

 eigenvalue-minimisations  :  1660
 total energy-change (2. order) :-0.6759060E-01  (-0.6711074E-01)
 number of electron      60.0000030 magnetization 
 augmentation part       23.5390386 magnetization 

 Broyden mixing:
  rms(total) = 0.18261E-01    rms(broyden)= 0.18207E-01
  rms(prec ) = 0.24632E-01
  weight for this iteration     100.00

 eigenvalues of (default mixing * dielectric matrix)
  average eigenvalue GAMMA=   1.3039
  2.4247  2.4247  0.3932  1.1108  0.7351  0.7351

 Free energy of the ion-electron system (eV)
  ---------------------------------------------------
  alpha Z        PSCENC =       213.19001967
  Ewald energy   TEWEN  =     -4389.36715041
  -Hartree energ DENC   =      -954.48493680
  -exchange      EXHF   =         0.00000000
  -V(xc)+E(xc)   XCENC  =       175.69932477
  PAW double counting   =      5164.19736579    -5384.48011832
  entropy T*S    EENTRO =        -0.09607638
  eigenvalues    EBANDS =       143.03252873
  atomic energy  EATOM  =      4982.48372054
  Solvation  Ediel_sol  =         0.00000000
  ---------------------------------------------------
  free energy    TOTEN  =       -49.82532240 eV

  energy without entropy =      -49.72924601  energy(sigma->0) =      -49.77728420


--------------------------------------------------------------------------------------------------------




--------------------------------------- Iteration      1(  12)  ---------------------------------------


    POTLOK:  cpu time    0.0121: real time    0.0124
    SETDIJ:  cpu time    0.0043: real time    0.0043
     EDDAV:  cpu time    0.9858: real time    0.9907
       DOS:  cpu time    0.0015: real time    0.0015
    CHARGE:  cpu time    0.0778: real time    0.0781
    MIXING:  cpu time    0.0007: real time    0.0007
    --------------------------------------------
      LOOP:  cpu time    1.0822: real time    1.0876

 eigenvalue-minimisations  :  1804
 total energy-change (2. order) :-0.1411724E-02  (-0.1663689E-02)
 number of electron      60.0000029 magnetization 
 augmentation part       23.5297644 magnetization 

 Broyden mixing:
  rms(total) = 0.54602E-02    rms(broyden)= 0.54569E-02
  rms(prec ) = 0.56215E-02
  weight for this iteration     100.00

 eigenvalues of (default mixing * dielectric matrix)
  average eigenvalue GAMMA=   1.3234
  2.5615  2.5615  0.3932  1.1356  1.1356  0.7380  0.7380

 Free energy of the ion-electron system (eV)
  ---------------------------------------------------
  alpha Z        PSCENC =       213.19001967
  Ewald energy   TEWEN  =     -4389.36715041
  -Hartree energ DENC   =      -955.03134340
  -exchange      EXHF   =         0.00000000
  -V(xc)+E(xc)   XCENC  =       175.73381938
  PAW double counting   =      5137.95314865    -5358.14080393
  entropy T*S    EENTRO =        -0.09680847
  eigenvalues    EBANDS =       143.44866385
  atomic energy  EATOM  =      4982.48372054
  Solvation  Ediel_sol  =         0.00000000
  ---------------------------------------------------
  free energy    TOTEN  =       -49.82673412 eV

  energy without entropy =      -49.72992565  energy(sigma->0) =      -49.77832988


--------------------------------------------------------------------------------------------------------




--------------------------------------- Iteration      1(  13)  ---------------------------------------


    POTLOK:  cpu time    0.0122: real time    0.0124
    SETDIJ:  cpu time    0.0045: real time    0.0045
     EDDAV:  cpu time    1.0857: real time    1.0911
       DOS:  cpu time    0.0015: real time    0.0015
    CHARGE:  cpu time    0.0774: real time    0.0778
    MIXING:  cpu time    0.0008: real time    0.0008
    --------------------------------------------
      LOOP:  cpu time    1.1821: real time    1.1880

 eigenvalue-minimisations  :  2032
 total energy-change (2. order) :-0.2767248E-04  (-0.3430923E-04)
 number of electron      60.0000029 magnetization 
 augmentation part       23.5292779 magnetization 

 Broyden mixing:
  rms(total) = 0.20257E-02    rms(broyden)= 0.20244E-02
  rms(prec ) = 0.34576E-02
  weight for this iteration     100.00

 eigenvalues of (default mixing * dielectric matrix)
  average eigenvalue GAMMA=   1.3482
  2.5953  2.5953  1.7138  0.3932  1.1103  0.7286  0.7286  0.9206

 Free energy of the ion-electron system (eV)
  ---------------------------------------------------
  alpha Z        PSCENC =       213.19001967
  Ewald energy   TEWEN  =     -4389.36715041
  -Hartree energ DENC   =      -955.03839007
  -exchange      EXHF   =         0.00000000
  -V(xc)+E(xc)   XCENC  =       175.73264780
  PAW double counting   =      5134.78357941    -5354.92421701
  entropy T*S    EENTRO =        -0.09670312
  eigenvalues    EBANDS =       143.40973138
  atomic energy  EATOM  =      4982.48372054
  Solvation  Ediel_sol  =         0.00000000
  ---------------------------------------------------
  free energy    TOTEN  =       -49.82676179 eV

  energy without entropy =      -49.73005867  energy(sigma->0) =      -49.77841023


--------------------------------------------------------------------------------------------------------




--------------------------------------- Iteration      1(  14)  ---------------------------------------


    POTLOK:  cpu time    0.0121: real time    0.0123
    SETDIJ:  cpu time    0.0043: real time    0.0043
     EDDAV:  cpu time    0.9486: real time    0.9535
       DOS:  cpu time    0.0015: real time    0.0015
    CHARGE:  cpu time    0.0773: real time    0.0776
    MIXING:  cpu time    0.0008: real time    0.0008
    --------------------------------------------
      LOOP:  cpu time    1.0446: real time    1.0501

 eigenvalue-minimisations  :  1732
 total energy-change (2. order) :-0.2533656E-05  (-0.2772713E-05)
 number of electron      60.0000029 magnetization 
 augmentation part       23.5311708 magnetization 

 Broyden mixing:
  rms(total) = 0.11004E-02    rms(broyden)= 0.10999E-02
  rms(prec ) = 0.17171E-02
  weight for this iteration     100.00

 eigenvalues of (default mixing * dielectric matrix)
  average eigenvalue GAMMA=   1.3575
  2.5954  2.3741  2.3741  0.3932  1.1331  0.7407  0.7407  0.9331  0.9331

 Free energy of the ion-electron system (eV)
  ---------------------------------------------------
  alpha Z        PSCENC =       213.19001967
  Ewald energy   TEWEN  =     -4389.36715041
  -Hartree energ DENC   =      -955.00236665
  -exchange      EXHF   =         0.00000000
  -V(xc)+E(xc)   XCENC  =       175.73230084
  PAW double counting   =      5135.37112396    -5355.50721561
  entropy T*S    EENTRO =        -0.09650572
  eigenvalues    EBANDS =       143.36930904
  atomic energy  EATOM  =      4982.48372054
  Solvation  Ediel_sol  =         0.00000000
  ---------------------------------------------------
  free energy    TOTEN  =       -49.82676433 eV

  energy without entropy =      -49.73025861  energy(sigma->0) =      -49.77851147


--------------------------------------------------------------------------------------------------------




--------------------------------------- Iteration      1(  15)  ---------------------------------------


    POTLOK:  cpu time    0.0121: real time    0.0123
    SETDIJ:  cpu time    0.0043: real time    0.0044
     EDDAV:  cpu time    0.5626: real time    0.5654
       DOS:  cpu time    0.0016: real time    0.0016
    CHARGE:  cpu time    0.0776: real time    0.0779
    MIXING:  cpu time    0.0008: real time    0.0008
    --------------------------------------------
      LOOP:  cpu time    0.6590: real time    0.6625

 eigenvalue-minimisations  :   788
 total energy-change (2. order) :-0.1298380E-02  (-0.2516422E-06)
 number of electron      60.0000030 magnetization 
 augmentation part       23.5328299 magnetization 

 Broyden mixing:
  rms(total) = 0.29601E-02    rms(broyden)= 0.28976E-02
  rms(prec ) = 0.44649E-02
  weight for this iteration     100.00

 eigenvalues of (default mixing * dielectric matrix)
  average eigenvalue GAMMA=   1.2189
  2.6457  2.3088  2.3088  0.3932  1.0925  0.7466  0.7466  0.9380  0.9380  0.0708

 Free energy of the ion-electron system (eV)
  ---------------------------------------------------
  alpha Z        PSCENC =       213.19001967
  Ewald energy   TEWEN  =     -4389.36715041
  -Hartree energ DENC   =      -954.99488196
  -exchange      EXHF   =         0.00000000
  -V(xc)+E(xc)   XCENC  =       175.73187228
  PAW double counting   =      5135.78170678    -5355.92467547
  entropy T*S    EENTRO =        -0.09953665
  eigenvalues    EBANDS =       143.37086250
  atomic energy  EATOM  =      4982.48372054
  Solvation  Ediel_sol  =         0.00000000
  ---------------------------------------------------
  free energy    TOTEN  =       -49.82806271 eV

  energy without entropy =      -49.72852605  energy(sigma->0) =      -49.77829438


--------------------------------------------------------------------------------------------------------




--------------------------------------- Iteration      1(  16)  ---------------------------------------


    POTLOK:  cpu time    0.0120: real time    0.0123
    SETDIJ:  cpu time    0.0044: real time    0.0044
     EDDAV:  cpu time    0.5397: real time    0.5424
       DOS:  cpu time    0.0016: real time    0.0016
    CHARGE:  cpu time    0.0776: real time    0.0780
    MIXING:  cpu time    0.0009: real time    0.0009
    --------------------------------------------
      LOOP:  cpu time    0.6362: real time    0.6396

 eigenvalue-minimisations  :   732
 total energy-change (2. order) :-0.5673884E-02  (-0.4354972E-02)
 number of electron      60.0000030 magnetization 
 augmentation part       23.5339568 magnetization 

 Broyden mixing:
  rms(total) = 0.46226E-02    rms(broyden)= 0.45686E-02
  rms(prec ) = 0.81218E-02
  weight for this iteration     100.00

 eigenvalues of (default mixing * dielectric matrix)
  average eigenvalue GAMMA=   1.1207
  2.6136  2.3596  2.3596  0.3932  1.1365  0.7397  0.7397  0.9465  0.9465  0.0415
  0.0512

 Free energy of the ion-electron system (eV)
  ---------------------------------------------------
  alpha Z        PSCENC =       213.19001967
  Ewald energy   TEWEN  =     -4389.36715041
  -Hartree energ DENC   =      -954.99563552
  -exchange      EXHF   =         0.00000000
  -V(xc)+E(xc)   XCENC  =       175.73192909
  PAW double counting   =      5135.80852237    -5355.95758851
  entropy T*S    EENTRO =        -0.10042095
  eigenvalues    EBANDS =       143.37286712
  atomic energy  EATOM  =      4982.48372054
  Solvation  Ediel_sol  =         0.00000000
  ---------------------------------------------------
  free energy    TOTEN  =       -49.83373659 eV

  energy without entropy =      -49.73331564  energy(sigma->0) =      -49.78352611


--------------------------------------------------------------------------------------------------------




--------------------------------------- Iteration      1(  17)  ---------------------------------------


    POTLOK:  cpu time    0.0121: real time    0.0123
    SETDIJ:  cpu time    0.0044: real time    0.0044
     EDDAV:  cpu time    0.5566: real time    0.5594
       DOS:  cpu time    0.0016: real time    0.0016
    CHARGE:  cpu time    0.0776: real time    0.0780
    MIXING:  cpu time    0.0010: real time    0.0010
    --------------------------------------------
      LOOP:  cpu time    0.6532: real time    0.6566

 eigenvalue-minimisations  :   776
 total energy-change (2. order) :-0.1248176E-03  (-0.1341920E-03)
 number of electron      60.0000030 magnetization 
 augmentation part       23.5337941 magnetization 

 Broyden mixing:
  rms(total) = 0.42161E-02    rms(broyden)= 0.42158E-02
  rms(prec ) = 0.77890E-02
  weight for this iteration     100.00

 eigenvalues of (default mixing * dielectric matrix)
  average eigenvalue GAMMA=   1.0634
  2.5987  2.4126  2.4126  1.1375  0.9589  0.9589  0.7367  0.7367  0.3932  0.1125
  0.1514  0.1514

 Free energy of the ion-electron system (eV)
  ---------------------------------------------------
  alpha Z        PSCENC =       213.19001967
  Ewald energy   TEWEN  =     -4389.36715041
  -Hartree energ DENC   =      -954.99549486
  -exchange      EXHF   =         0.00000000
  -V(xc)+E(xc)   XCENC  =       175.73191035
  PAW double counting   =      5135.87201850    -5356.02719928
  entropy T*S    EENTRO =        -0.10076836
  eigenvalues    EBANDS =       143.37908243
  atomic energy  EATOM  =      4982.48372054
  Solvation  Ediel_sol  =         0.00000000
  ---------------------------------------------------
  free energy    TOTEN  =       -49.83386141 eV

  energy without entropy =      -49.73309304  energy(sigma->0) =      -49.78347723


--------------------------------------------------------------------------------------------------------




--------------------------------------- Iteration      1(  18)  ---------------------------------------


    POTLOK:  cpu time    0.0123: real time    0.0123
    SETDIJ:  cpu time    0.0044: real time    0.0044
     EDDAV:  cpu time    0.5380: real time    0.5408
       DOS:  cpu time    0.0016: real time    0.0016
    CHARGE:  cpu time    0.0789: real time    0.0793
    MIXING:  cpu time    0.0010: real time    0.0010
    --------------------------------------------
      LOOP:  cpu time    0.6362: real time    0.6393

 eigenvalue-minimisations  :   728
 total energy-change (2. order) : 0.3290398E-05  (-0.1486698E-05)
 number of electron      60.0000030 magnetization 
 augmentation part       23.5334744 magnetization 

 Broyden mixing:
  rms(total) = 0.41086E-02    rms(broyden)= 0.41082E-02
  rms(prec ) = 0.71596E-02
  weight for this iteration     100.00

 eigenvalues of (default mixing * dielectric matrix)
  average eigenvalue GAMMA=   1.1039
  2.6821  2.1963  2.1963  0.3932  1.2799  1.2799  0.9596  0.7478  0.7478  0.8053
  0.8053  0.1507  0.1069

 Free energy of the ion-electron system (eV)
  ---------------------------------------------------
  alpha Z        PSCENC =       213.19001967
  Ewald energy   TEWEN  =     -4389.36715041
  -Hartree energ DENC   =      -954.99397295
  -exchange      EXHF   =         0.00000000
  -V(xc)+E(xc)   XCENC  =       175.73156053
  PAW double counting   =      5135.80869749    -5355.96292549
  entropy T*S    EENTRO =        -0.10069330
  eigenvalues    EBANDS =       143.37688580
  atomic energy  EATOM  =      4982.48372054
  Solvation  Ediel_sol  =         0.00000000
  ---------------------------------------------------
  free energy    TOTEN  =       -49.83385812 eV

  energy without entropy =      -49.73316482  energy(sigma->0) =      -49.78351147


--------------------------------------------------------------------------------------------------------




--------------------------------------- Iteration      1(  19)  ---------------------------------------


    POTLOK:  cpu time    0.0121: real time    0.0124
    SETDIJ:  cpu time    0.0044: real time    0.0044
     EDDAV:  cpu time    0.5483: real time    0.5511
       DOS:  cpu time    0.0015: real time    0.0015
    CHARGE:  cpu time    0.0782: real time    0.0785
    MIXING:  cpu time    0.0011: real time    0.0011
    --------------------------------------------
      LOOP:  cpu time    0.6456: real time    0.6489

 eigenvalue-minimisations  :   740
 total energy-change (2. order) : 0.3362776E-05  (-0.2445510E-06)
 number of electron      60.0000030 magnetization 
 augmentation part       23.5334125 magnetization 

 Broyden mixing:
  rms(total) = 0.41793E-02    rms(broyden)= 0.41793E-02
  rms(prec ) = 0.70147E-02
  weight for this iteration     100.00

 eigenvalues of (default mixing * dielectric matrix)
  average eigenvalue GAMMA=   1.1363
  2.5780  2.2298  2.1415  2.1415  1.3244  0.3932  0.9535  0.9535  0.8149  0.8149
  0.7356  0.5680  0.1532  0.1068

 Free energy of the ion-electron system (eV)
  ---------------------------------------------------
  alpha Z        PSCENC =       213.19001967
  Ewald energy   TEWEN  =     -4389.36715041
  -Hartree energ DENC   =      -954.99292404
  -exchange      EXHF   =         0.00000000
  -V(xc)+E(xc)   XCENC  =       175.73128177
  PAW double counting   =      5135.74738684    -5355.90240106
  entropy T*S    EENTRO =        -0.10076194
  eigenvalues    EBANDS =       143.37697387
  atomic energy  EATOM  =      4982.48372054
  Solvation  Ediel_sol  =         0.00000000
  ---------------------------------------------------
  free energy    TOTEN  =       -49.83385475 eV

  energy without entropy =      -49.73309281  energy(sigma->0) =      -49.78347378


--------------------------------------------------------------------------------------------------------




--------------------------------------- Iteration      1(  20)  ---------------------------------------


    POTLOK:  cpu time    0.0122: real time    0.0124
    SETDIJ:  cpu time    0.0057: real time    0.0057
     EDDAV:  cpu time    0.5391: real time    0.5420
       DOS:  cpu time    0.0016: real time    0.0016
    CHARGE:  cpu time    0.0774: real time    0.0778
    MIXING:  cpu time    0.0012: real time    0.0012
    --------------------------------------------
      LOOP:  cpu time    0.6371: real time    0.6406

 eigenvalue-minimisations  :   724
 total energy-change (2. order) : 0.4476002E-05  (-0.4954652E-07)
 number of electron      60.0000030 magnetization 
 augmentation part       23.5332422 magnetization 

 Broyden mixing:
  rms(total) = 0.44394E-02    rms(broyden)= 0.44394E-02
  rms(prec ) = 0.71148E-02
  weight for this iteration     100.00

 eigenvalues of (default mixing * dielectric matrix)
  average eigenvalue GAMMA=   1.1904
  2.7115  2.7115  2.3966  1.8959  1.8959  1.1387  0.3932  0.9425  0.8250  0.6794
  0.6794  0.7030  0.6237  0.1534  0.1068

 Free energy of the ion-electron system (eV)
  ---------------------------------------------------
  alpha Z        PSCENC =       213.19001967
  Ewald energy   TEWEN  =     -4389.36715041
  -Hartree energ DENC   =      -954.99483712
  -exchange      EXHF   =         0.00000000
  -V(xc)+E(xc)   XCENC  =       175.73109416
  PAW double counting   =      5135.74157284    -5355.89855728
  entropy T*S    EENTRO =        -0.10078139
  eigenvalues    EBANDS =       143.38106869
  atomic energy  EATOM  =      4982.48372054
  Solvation  Ediel_sol  =         0.00000000
  ---------------------------------------------------
  free energy    TOTEN  =       -49.83385028 eV

  energy without entropy =      -49.73306889  energy(sigma->0) =      -49.78345958


--------------------------------------------------------------------------------------------------------




--------------------------------------- Iteration      1(  21)  ---------------------------------------


    POTLOK:  cpu time    0.0120: real time    0.0124
    SETDIJ:  cpu time    0.0043: real time    0.0043
     EDDAV:  cpu time    0.5351: real time    0.5380
       DOS:  cpu time    0.0015: real time    0.0015
    CHARGE:  cpu time    0.0773: real time    0.0776
    MIXING:  cpu time    0.0012: real time    0.0012
    --------------------------------------------
      LOOP:  cpu time    0.6315: real time    0.6351

 eigenvalue-minimisations  :   720
 total energy-change (2. order) : 0.2037118E-05  (-0.1610462E-07)
 number of electron      60.0000030 magnetization 
 augmentation part       23.5332853 magnetization 

 Broyden mixing:
  rms(total) = 0.45780E-02    rms(broyden)= 0.45780E-02
  rms(prec ) = 0.72619E-02
  weight for this iteration     100.00

 eigenvalues of (default mixing * dielectric matrix)
  average eigenvalue GAMMA=   1.1247
  2.7374  2.7374  2.3891  1.8769  1.8769  1.1377  0.3932  0.9463  0.8176  0.7121
  0.6923  0.6923  0.6085  0.1533  0.1166  0.1068

 Free energy of the ion-electron system (eV)
  ---------------------------------------------------
  alpha Z        PSCENC =       213.19001967
  Ewald energy   TEWEN  =     -4389.36715041
  -Hartree energ DENC   =      -954.99482905
  -exchange      EXHF   =         0.00000000
  -V(xc)+E(xc)   XCENC  =       175.73094445
  PAW double counting   =      5135.71031993    -5355.86738868
  entropy T*S    EENTRO =        -0.10079355
  eigenvalues    EBANDS =       143.38130884
  atomic energy  EATOM  =      4982.48372054
  Solvation  Ediel_sol  =         0.00000000
  ---------------------------------------------------
  free energy    TOTEN  =       -49.83384824 eV

  energy without entropy =      -49.73305469  energy(sigma->0) =      -49.78345147


--------------------------------------------------------------------------------------------------------




--------------------------------------- Iteration      1(  22)  ---------------------------------------


    POTLOK:  cpu time    0.0120: real time    0.0123
    SETDIJ:  cpu time    0.0044: real time    0.0044
     EDDAV:  cpu time    0.5351: real time    0.5380
       DOS:  cpu time    0.0016: real time    0.0016
    CHARGE:  cpu time    0.0776: real time    0.0779
    MIXING:  cpu time    0.0013: real time    0.0013
    --------------------------------------------
      LOOP:  cpu time    0.6319: real time    0.6355

 eigenvalue-minimisations  :   720
 total energy-change (2. order) :-0.1167507E-05  (-0.1026899E-07)
 number of electron      60.0000030 magnetization 
 augmentation part       23.5332020 magnetization 

 Broyden mixing:
  rms(total) = 0.44242E-02    rms(broyden)= 0.44242E-02
  rms(prec ) = 0.69945E-02
  weight for this iteration     100.00

 eigenvalues of (default mixing * dielectric matrix)
  average eigenvalue GAMMA=   1.2493
  2.4490  2.4490  2.7252  2.7252  2.3807  1.0569  1.0569  1.1704  0.3932  0.8901
  0.8901  0.7324  0.7324  0.7037  0.6222  0.1534  0.1068

 Free energy of the ion-electron system (eV)
  ---------------------------------------------------
  alpha Z        PSCENC =       213.19001967
  Ewald energy   TEWEN  =     -4389.36715041
  -Hartree energ DENC   =      -954.99427399
  -exchange      EXHF   =         0.00000000
  -V(xc)+E(xc)   XCENC  =       175.73098553
  PAW double counting   =      5135.71668005    -5355.87328074
  entropy T*S    EENTRO =        -0.10078468
  eigenvalues    EBANDS =       143.38023461
  atomic energy  EATOM  =      4982.48372054
  Solvation  Ediel_sol  =         0.00000000
  ---------------------------------------------------
  free energy    TOTEN  =       -49.83384941 eV

  energy without entropy =      -49.73306473  energy(sigma->0) =      -49.78345707


--------------------------------------------------------------------------------------------------------




--------------------------------------- Iteration      1(  23)  ---------------------------------------


    POTLOK:  cpu time    0.0121: real time    0.0123
    SETDIJ:  cpu time    0.0043: real time    0.0043
     EDDAV:  cpu time    0.5567: real time    0.5596
       DOS:  cpu time    0.0015: real time    0.0015
    CHARGE:  cpu time    0.0773: real time    0.0777
    MIXING:  cpu time    0.0013: real time    0.0013
    --------------------------------------------
      LOOP:  cpu time    0.6532: real time    0.6568

 eigenvalue-minimisations  :   776
 total energy-change (2. order) :-0.9175240E-05  (-0.1423583E-06)
 number of electron      60.0000030 magnetization 
 augmentation part       23.5332072 magnetization 

 Broyden mixing:
  rms(total) = 0.33752E-02    rms(broyden)= 0.33748E-02
  rms(prec ) = 0.56177E-02
  weight for this iteration     100.00

 eigenvalues of (default mixing * dielectric matrix)
  average eigenvalue GAMMA=   1.2298
  2.4080  2.6237  2.6237  2.4701  1.9265  1.9265  1.1787  0.3932  0.8690  0.8690
  0.9028  0.9028  0.7144  0.7144  0.6771  0.6771  0.1534  0.1068

 Free energy of the ion-electron system (eV)
  ---------------------------------------------------
  alpha Z        PSCENC =       213.19001967
  Ewald energy   TEWEN  =     -4389.36715041
  -Hartree energ DENC   =      -954.99125175
  -exchange      EXHF   =         0.00000000
  -V(xc)+E(xc)   XCENC  =       175.73151793
  PAW double counting   =      5135.70971390    -5355.86033949
  entropy T*S    EENTRO =        -0.10072106
  eigenvalues    EBANDS =       143.37063209
  atomic energy  EATOM  =      4982.48372054
  Solvation  Ediel_sol  =         0.00000000
  ---------------------------------------------------
  free energy    TOTEN  =       -49.83385858 eV

  energy without entropy =      -49.73313752  energy(sigma->0) =      -49.78349805


--------------------------------------------------------------------------------------------------------




--------------------------------------- Iteration      1(  24)  ---------------------------------------


    POTLOK:  cpu time    0.0121: real time    0.0123
    SETDIJ:  cpu time    0.0043: real time    0.0044
     EDDAV:  cpu time    0.6491: real time    0.6525
       DOS:  cpu time    0.0016: real time    0.0016
    CHARGE:  cpu time    0.0771: real time    0.0775
    MIXING:  cpu time    0.0014: real time    0.0014
    --------------------------------------------
      LOOP:  cpu time    0.7457: real time    0.7498

 eigenvalue-minimisations  :   992
 total energy-change (2. order) :-0.6107893E-05  (-0.2964228E-06)
 number of electron      60.0000030 magnetization 
 augmentation part       23.5326618 magnetization 

 Broyden mixing:
  rms(total) = 0.18073E-02    rms(broyden)= 0.18060E-02
  rms(prec ) = 0.31759E-02
  weight for this iteration     100.00

 eigenvalues of (default mixing * dielectric matrix)
  average eigenvalue GAMMA=   1.4182
  6.3639  2.5799  2.5799  2.4855  2.0805  2.0805  1.1726  0.9348  0.9348  0.3932
  0.9124  0.9124  0.7071  0.7071  0.6795  0.6795  0.1534  0.4811  0.1068

 Free energy of the ion-electron system (eV)
  ---------------------------------------------------
  alpha Z        PSCENC =       213.19001967
  Ewald energy   TEWEN  =     -4389.36715041
  -Hartree energ DENC   =      -954.99662585
  -exchange      EXHF   =         0.00000000
  -V(xc)+E(xc)   XCENC  =       175.73284904
  PAW double counting   =      5135.74340577    -5355.89109818
  entropy T*S    EENTRO =        -0.10067899
  eigenvalues    EBANDS =       143.37169371
  atomic energy  EATOM  =      4982.48372054
  Solvation  Ediel_sol  =         0.00000000
  ---------------------------------------------------
  free energy    TOTEN  =       -49.83386469 eV

  energy without entropy =      -49.73318571  energy(sigma->0) =      -49.78352520


--------------------------------------------------------------------------------------------------------




--------------------------------------- Iteration      1(  25)  ---------------------------------------


    POTLOK:  cpu time    0.0122: real time    0.0124
    SETDIJ:  cpu time    0.0043: real time    0.0044
     EDDAV:  cpu time    0.7229: real time    0.7266
       DOS:  cpu time    0.0016: real time    0.0016
    CHARGE:  cpu time    0.0772: real time    0.0776
    MIXING:  cpu time    0.0015: real time    0.0015
    --------------------------------------------
      LOOP:  cpu time    0.8197: real time    0.8241

 eigenvalue-minimisations  :  1196
 total energy-change (2. order) :-0.1217508E-05  (-0.4185166E-06)
 number of electron      60.0000030 magnetization 
 augmentation part       23.5324808 magnetization 

 Broyden mixing:
  rms(total) = 0.90895E-03    rms(broyden)= 0.90829E-03
  rms(prec ) = 0.17413E-02
  weight for this iteration     100.00

 eigenvalues of (default mixing * dielectric matrix)
  average eigenvalue GAMMA=   1.4732
  7.9536  2.5529  2.5529  2.5145  2.2488  2.2488  1.1390  0.9708  0.9708  0.9401
  0.9401  0.3932  0.7369  0.7369  0.6596  0.6596  0.1534  0.4925  0.4925  0.1068

 Free energy of the ion-electron system (eV)
  ---------------------------------------------------
  alpha Z        PSCENC =       213.19001967
  Ewald energy   TEWEN  =     -4389.36715041
  -Hartree energ DENC   =      -955.00139733
  -exchange      EXHF   =         0.00000000
  -V(xc)+E(xc)   XCENC  =       175.73369358
[...]
      2     -10.5709      2.00000
      3     -10.5709      2.00000
      4     -10.4408      2.00000
      5       1.2508      2.00000
      6       1.3236      2.00000
      7       1.3236      2.00000
      8       1.5518      2.00000
      9       2.9596      2.00000
     10       3.2401      2.00000
     11       3.2401      2.00000
     12       3.3750      2.00000
     13       3.4571      2.00000
     14       3.4571      2.00000
     15       3.5231      2.00000
     16       3.6151      2.00000
     17       8.5164      2.00000
     18       8.5164      2.00000
     19       8.5608      2.00000
     20       8.6814      2.00000
     21       8.7789      2.00000
     22       8.8569      2.00000
     23       8.9115      2.00000
     24       8.9115      2.00000
     25       9.0843      2.00000
     26       9.1472      2.00000
     27       9.1742      2.00000
     28       9.1742      2.00000
     29       9.7587      0.00032
     30       9.8202      0.00001
     31       9.8202      0.00001
     32       9.8778      0.00000
     33      11.0907      0.00000
     34      11.0907      0.00000
     35      11.1012      0.00000
     36      11.1248      0.00000

 k-point    17 :       0.2857    0.2857    0.2857
  band No.  band energies     occupation 
      1     -11.0996      2.00000
      2     -10.4610      2.00000
      3     -10.4610      2.00000
      4     -10.4610      2.00000
      5       1.3045      2.00000
      6       1.3045      2.00000
      7       1.3045      2.00000
      8       2.1075      2.00000
      9       3.0024      2.00000
     10       3.0024      2.00000
     11       3.0024      2.00000
     12       3.6279      2.00000
     13       3.6279      2.00000
     14       3.6279      2.00000
     15       3.9335      2.00000
     16       3.9335      2.00000
     17       8.1922      2.00000
     18       8.1922      2.00000
     19       8.1922      2.00000
     20       8.5199      2.00000
     21       8.5199      2.00000
     22       8.6679      2.00000
     23       9.0817      2.00000
     24       9.0817      2.00000
     25       9.0817      2.00000
     26       9.2794      1.99853
     27       9.2794      1.99853
     28       9.2794      1.99853
     29      10.3141      0.00000
     30      10.3141      0.00000
     31      10.3141      0.00000
     32      10.3169      0.00000
     33      10.3169      0.00000
     34      10.3245      0.00000
     35      10.3245      0.00000
     36      10.3245      0.00000

 k-point    18 :       0.4286    0.2857    0.2857
  band No.  band energies     occupation 
      1     -10.8567      2.00000
      2     -10.6252      2.00000
      3     -10.4099      2.00000
      4     -10.4099      2.00000
      5       1.0608      2.00000
      6       1.0608      2.00000
      7       1.2208      2.00000
      8       1.5189      2.00000
      9       2.9872      2.00000
     10       2.9872      2.00000
     11       3.2808      2.00000
     12       3.4111      2.00000
     13       3.4111      2.00000
     14       3.5769      2.00000
     15       3.6731      2.00000
     16       3.7783      2.00000
     17       8.2993      2.00000
     18       8.4316      2.00000
     19       8.5986      2.00000
     20       8.5986      2.00000
     21       8.7885      2.00000
     22       8.9675      2.00000
     23       8.9675      2.00000
     24       8.9807      2.00000
     25       8.9869      2.00000
     26       9.2200      1.99994
     27       9.2529      1.99962
     28       9.2529      1.99962
     29      10.3494      0.00000
     30      10.3494      0.00000
     31      10.3516      0.00000
     32      10.3536      0.00000
     33      10.7280      0.00000
     34      10.7875      0.00000
     35      10.8081      0.00000
     36      10.8081      0.00000

 k-point    19 :       0.4286    0.4286    0.2857
  band No.  band energies     occupation 
      1     -10.6672      2.00000
      2     -10.5052      2.00000
      3     -10.5052      2.00000
      4     -10.4273      2.00000
      5       0.8130      2.00000
      6       0.8805      2.00000
      7       0.8805      2.00000
      8       1.0575      2.00000
      9       3.1138      2.00000
     10       3.2141      2.00000
     11       3.2141      2.00000
     12       3.3384      2.00000
     13       3.4154      2.00000
     14       3.4154      2.00000
     15       3.4376      2.00000
     16       3.5017      2.00000
     17       8.6754      2.00000
     18       8.6754      2.00000
     19       8.7347      2.00000
     20       8.7921      2.00000
     21       8.8102      2.00000
     22       8.9397      2.00000
     23       8.9606      2.00000
     24       8.9606      2.00000
     25       9.1174      2.00000
     26       9.2230      1.99993
     27       9.2301      1.99989
     28       9.2301      1.99989
     29      10.5608      0.00000
     30      10.5659      0.00000
     31      10.5659      0.00000
     32      10.5782      0.00000
     33      11.1152      0.00000
     34      11.1152      0.00000
     35      11.1307      0.00000
     36      11.1511      0.00000

 k-point    20 :       0.4286    0.4286    0.4286
  band No.  band energies     occupation 
      1     -10.5384      2.00000
      2     -10.4510      2.00000
      3     -10.4510      2.00000
      4     -10.4510      2.00000
      5       0.5630      2.00000
      6       0.5630      2.00000
      7       0.5630      2.00000
      8       0.6560      2.00000
      9       3.2327      2.00000
     10       3.2327      2.00000
     11       3.2327      2.00000
     12       3.3236      2.00000
     13       3.3236      2.00000
     14       3.3236      2.00000
     15       3.3580      2.00000
     16       3.3580      2.00000
     17       8.8739      2.00000
     18       8.8739      2.00000
     19       8.8739      2.00000
     20       8.9012      2.00000
     21       8.9012      2.00000
     22       8.9746      2.00000
     23       8.9746      2.00000
     24       8.9746      2.00000
     25       9.2082      1.99997
     26       9.2839      1.99817
     27       9.2839      1.99817
     28       9.2839      1.99817
     29      11.1244      0.00000
     30      11.1244      0.00000
     31      11.1244      0.00000
     32      11.1616      0.00000
     33      11.1616      0.00000
     34      11.1616      0.00000
     35      11.1701      0.00000
     36      11.1701      0.00000


--------------------------------------------------------------------------------------------------------


 soft charge-density along one line, spin component           1
         0         1         2         3         4         5         6         7         8         9
 total charge-density along one line
 
 pseudopotential strength for first ion, spin component:           1
 -0.194  -0.000   0.000  -0.000  -0.000  -0.852  -0.000   0.000
 -0.000  -0.194  -0.000  -0.000   0.000  -0.000  -0.852  -0.000
  0.000  -0.000  -0.435  -0.000  -0.000   0.000  -0.000  -1.084
 -0.000  -0.000  -0.000  -0.194  -0.000  -0.000  -0.000  -0.000
 -0.000   0.000  -0.000  -0.000  -0.435  -0.000   0.000  -0.000
 -0.852  -0.000   0.000  -0.000  -0.000  -1.450  -0.000   0.000
 -0.000  -0.852  -0.000  -0.000   0.000  -0.000  -1.450  -0.000
  0.000  -0.000  -1.084  -0.000  -0.000   0.000  -0.000  -1.673
 -0.000  -0.000  -0.000  -0.852  -0.000  -0.000  -0.000  -0.000
 -0.000   0.000  -0.000  -0.000  -1.084  -0.000   0.000  -0.000
  0.000   0.000   0.000   0.000  -0.000   0.000   0.000   0.000
  0.000   0.000   0.000   0.000  -0.000   0.000   0.000   0.000
  0.000   0.000  -0.000  -0.000  -0.000   0.000   0.000  -0.000
 -0.000   0.000   0.000   0.000   0.000  -0.000   0.000   0.000
  0.000  -0.000  -0.000   0.000   0.000   0.000  -0.000  -0.000
  0.000   0.000  -0.000  -0.000  -0.000   0.000   0.000  -0.000
 -0.000   0.000   0.000   0.000   0.000  -0.000   0.000   0.000
  0.000  -0.000  -0.000   0.000   0.000   0.000  -0.000  -0.000
 total augmentation occupancy for first ion, spin component:           1
  4.664   0.000   0.000  -0.000   0.000  -2.345  -0.000  -0.000   0.000  -0.000  -0.000  -0.000   0.000  -0.000  -0.000  -0.000
  0.000   4.664  -0.000  -0.000  -0.000  -0.000  -2.345   0.000   0.000   0.000  -0.000   0.000  -0.000   0.000   0.000  -0.000
  0.000  -0.000   4.700   0.000  -0.000   0.000   0.000  -4.439   0.000  -0.000  -0.000  -0.000   0.000   0.000   0.000   0.000
 -0.000  -0.000   0.000   4.664   0.000   0.000   0.000  -0.000  -2.345   0.000   0.000  -0.000   0.000   0.000  -0.000  -0.000
  0.000  -0.000  -0.000   0.000   4.700   0.000   0.000   0.000  -0.000  -4.439   0.000  -0.000   0.000   0.000  -0.000   0.000
 -2.345  -0.000   0.000   0.000   0.000   2.007   0.000   0.000  -0.000  -0.000   0.000   0.000  -0.000   0.000   0.000  -0.000
 -0.000  -2.345  -0.000   0.000   0.000   0.000   2.007  -0.000  -0.000   0.000   0.000   0.000  -0.000   0.000  -0.000  -0.000
  0.000   0.000  -4.439   0.000   0.000   0.000  -0.000   5.135  -0.000   0.000  -0.000  -0.000  -0.000   0.000   0.000   0.000
  0.000   0.000   0.000  -2.345  -0.000  -0.000   0.000   0.000   2.007  -0.000  -0.000  -0.000  -0.000   0.000  -0.000  -0.000
 -0.000   0.000  -0.000   0.000  -4.439  -0.000   0.000  -0.000  -0.000   5.135   0.000  -0.000   0.000   0.000   0.000   0.000
 -0.000   0.000   0.000  -0.000   0.000   0.000   0.000  -0.000   0.000  -0.000   2.246  -0.494   0.000   0.000   0.000   0.000
  0.000   0.000  -0.000  -0.000   0.000   0.000  -0.000  -0.000  -0.000   0.000  -0.494   0.123   0.000   0.000   0.000   0.000
  0.000  -0.000   0.000   0.000   0.000  -0.000  -0.000  -0.000  -0.000   0.000   0.000   0.000   0.304  -0.000  -0.000  -0.055
 -0.000   0.000  -0.000   0.000   0.000   0.000   0.000   0.000   0.000   0.000   0.000   0.000  -0.000   0.304  -0.000   0.000
 -0.000   0.000   0.000  -0.000  -0.000   0.000  -0.000   0.000  -0.000   0.000   0.000   0.000   0.000   0.000   0.304  -0.000
 -0.000  -0.000  -0.000  -0.000  -0.000  -0.000  -0.000   0.000  -0.000   0.000   0.000   0.000  -0.055   0.000  -0.000   0.011
 -0.000   0.000  -0.000   0.000  -0.000   0.000   0.000   0.000   0.000  -0.000   0.000   0.000   0.000  -0.055  -0.000  -0.000
 -0.000   0.000  -0.000  -0.000   0.000   0.000  -0.000  -0.000   0.000  -0.000   0.000   0.000  -0.000  -0.000  -0.055   0.000


------------------------ aborting loop because EDIFF is reached ----------------------------------------



 ----------------------------------------------------------------------------- 
|                                                                             |
|           W    W    AA    RRRRR   N    N  II  N    N   GGGG   !!!           |
|           W    W   A  A   R    R  NN   N  II  NN   N  G    G  !!!           |
|           W    W  A    A  R    R  N N  N  II  N N  N  G       !!!           |
|           W WW W  AAAAAA  RRRRR   N  N N  II  N  N N  G  GGG   !            |
|           WW  WW  A    A  R   R   N   NN  II  N   NN  G    G                |
|           W    W  A    A  R    R  N    N  II  N    N   GGGG   !!!           |
|                                                                             |
|      Your highest band is occupied at some k-points! Unless you are         |
|      performing a calculation for an insulator or semiconductor, without    |
|      unoccupied bands, you have included TOO FEW BANDS!! Please increase    |
|      the parameter NBANDS in file INCAR to ensure that the highest band     |
|      is unoccupied at all k-points. It is always recommended to             |
|      include a few unoccupied bands to accelerate the convergence of        |
|      molecular dynamics runs (even for insulators or semiconductors).       |
|      Because the presence of unoccupied bands improves wavefunction         |
|      prediction, and helps to suppress 'band-crossings.'                    |
|      Following all k-points will be listed (with the Fermi weights of       |
|      the highest band given in paranthesis) ... :                           |
|                                                                             |
|                          1       ( 0.93201)                                 |
|                          2       ( 0.51886)                                 |
|                          5       ( 0.09747)                                 |
|                         11       ( 0.02908)                                 |
|                                                                             |
|      The total occupancy of band no.    36 is   0.03176 electrons ...       |
|                                                                             |
 ----------------------------------------------------------------------------- 

    CHARGE:  cpu time    0.0775: real time    0.0779
    FORLOC:  cpu time    0.0009: real time    0.0009
    FORNL :  cpu time    0.1266: real time    0.1271
    STRESS:  cpu time    0.2498: real time    0.2508
    FORCOR:  cpu time    0.0125: real time    0.0125
    FORHAR:  cpu time    0.0035: real time    0.0035
    MIXING:  cpu time    0.0007: real time    0.0007
    OFIELD:  cpu time    0.0000: real time    0.0000

  FORCE on cell =-STRESS in cart. coord.  units (eV):
  Direction    XX          YY          ZZ          XY          YZ          ZX
  --------------------------------------------------------------------------------------
  Alpha Z   245.63263   245.63263   245.63263
  Ewald   -1533.86697 -1533.86697 -1533.86697    -0.00000     0.00000     0.00000
  Hartree   288.67781   288.67781   288.67781    -0.00000    -0.00000    -0.00000
  E(xc)    -303.81752  -303.81752  -303.81752    -0.00000     0.00000    -0.00000
  Local     -51.47215   -51.47215   -51.47215     0.00000     0.00000     0.00000
  n-local  -129.11061  -137.72381  -137.05252     0.67074     0.11015     0.01420
  augment   656.46519   656.46519   656.46519     0.00000    -0.00000    -0.00000
  Kinetic   805.01588   831.26970   862.09378    -2.64465    -3.72632    -2.11090
  Fock        0.00000     0.00000     0.00000     0.00000     0.00000     0.00000
  -------------------------------------------------------------------------------------
  Total      -0.21686    -0.21686    -0.21686     0.00000    -0.00000     0.00000
  in kB      -5.06397    -5.06397    -5.06397     0.00000    -0.00000     0.00000
  external pressure =       -5.06 kB  Pullay stress =        0.00 kB


 VOLUME and BASIS-vectors are now :
 -----------------------------------------------------------------------------
  energy-cutoff  :      400.00
  volume of cell :       68.61
      direct lattice vectors                 reciprocal lattice vectors
     4.093881047 -0.000000000 -0.000000000     0.244266990 -0.000000000 -0.000000000
     0.000000000  4.093881047 -0.000000000     0.000000000  0.244266990 -0.000000000
     0.000000000  0.000000000  4.093881047     0.000000000  0.000000000  0.244266990

  length of vectors
     4.093881047  4.093881047  4.093881047     0.244266990  0.244266990  0.244266990


 FORCES acting on ions
    electron-ion (+dipol)            ewald-force                    non-local-force                 convergence-correction
 -----------------------------------------------------------------------------------------------
   0.640E-06 0.640E-06 0.640E-06   -.216E-05 -.216E-05 -.216E-05   0.207E-24 0.620E-24 -.227E-23   0.462E-10 0.462E-10 0.462E-10
   0.640E-06 -.106E-05 -.106E-05   -.216E-05 0.216E-05 0.216E-05   0.829E-24 0.151E-27 0.124E-23   0.462E-10 -.452E-10 -.452E-10
   -.106E-05 0.640E-06 -.106E-05   0.216E-05 -.216E-05 0.216E-05   -.413E-24 0.146E-28 0.517E-25   -.453E-10 0.462E-10 -.452E-10
   -.106E-05 -.106E-05 0.640E-06   0.216E-05 0.216E-05 -.216E-05   -.643E-27 0.827E-24 0.145E-23   -.453E-10 -.452E-10 0.462E-10
   0.270E-05 0.270E-05 0.270E-05   0.168E-05 0.168E-05 0.168E-05   0.312E-26 0.414E-24 -.165E-23   -.367E-10 -.366E-10 -.366E-10
   0.270E-05 0.799E-06 0.799E-06   0.168E-05 -.168E-05 -.168E-05   -.166E-23 0.165E-23 0.207E-23   -.367E-10 0.341E-10 0.341E-10
   0.799E-06 0.270E-05 0.799E-06   -.168E-05 0.168E-05 -.168E-05   0.240E-23 0.289E-23 0.165E-23   0.341E-10 -.367E-10 0.341E-10
   0.799E-06 0.799E-06 0.270E-05   -.168E-05 -.168E-05 0.168E-05   -.620E-24 0.579E-23 -.414E-24   0.341E-10 0.341E-10 -.366E-10
 -----------------------------------------------------------------------------------------------
   0.617E-05 0.617E-05 0.617E-05   -.799E-15 0.135E-14 0.124E-14   0.749E-24 0.122E-22 0.212E-23   -.323E-11 -.321E-11 -.293E-11
 
 
 POSITION                                       TOTAL-FORCE (eV/Angst)
 -----------------------------------------------------------------------------------
      0.00000      0.00000     -0.00000        -0.000000     -0.000000     -0.000000
      0.00000      2.04694      2.04694        -0.000000     -0.000000     -0.000000
      2.04694     -0.00000      2.04694        -0.000000     -0.000000     -0.000000
      2.04694      2.04694     -0.00000        -0.000000      0.000000     -0.000000
      2.04694      2.04694      2.04694         0.000000      0.000000     -0.000000
      2.04694     -0.00000     -0.00000         0.000000      0.000000      0.000000
      0.00000      2.04694     -0.00000         0.000000     -0.000000      0.000000
      0.00000      0.00000      2.04694        -0.000000     -0.000000      0.000000
 -----------------------------------------------------------------------------------
    total drift:                                0.000006      0.000006      0.000006


--------------------------------------------------------------------------------------------------------



  FREE ENERGIE OF THE ION-ELECTRON SYSTEM (eV)
  ---------------------------------------------------
  free  energy   TOTEN  =       -50.84441410 eV

  energy  without entropy=      -50.79068428  energy(sigma->0) =      -50.81754919
 
 d Force = 0.0000000E+00[ 0.000E+00, 0.000E+00]  d Energy = 0.6924195E+00-0.692E+00
 d Force = 0.0000000E+00[ 0.000E+00, 0.000E+00]  d Ewald  =-0.1736375E+03 0.174E+03


--------------------------------------------------------------------------------------------------------


    POTLOK:  cpu time    0.0166: real time    0.0167


--------------------------------------------------------------------------------------------------------


 stress matrix after NEB project (eV)
     -0.21686     -0.00000      0.00000
      0.00000     -0.21686     -0.00000
      0.00000     -0.00000     -0.21686
  FORCES: max atom, RMS     0.000000    0.000000
  FORCE total and by dimension    0.000000    0.000000
  Stress total and by dimension    0.375618    0.216863


--------------------------------------------------------------------------------------------------------


  
 reached required accuracy - stopping structural energy minimisation
     LOOP+:  cpu time   11.7084: real time   11.7815
    4ORBIT:  cpu time    0.0000: real time    0.0000

 total amount of memory used by VASP MPI-rank0    34188. kBytes
=======================================================================

   base      :      30000. kBytes
   nonl-proj :       2143. kBytes
   fftplans  :        347. kBytes
   grid      :        539. kBytes
   one-center:         31. kBytes
   wavefun   :       1128. kBytes
 
  
  
 General timing and accounting informations for this job:
 ========================================================
  
                  Total CPU time used (sec):       53.228
                            User time (sec):       52.505
                          System time (sec):        0.723
                         Elapsed time (sec):       53.762
  
                   Maximum memory used (kb):       48608.
                   Average memory used (kb):           0.
  
                          Minor page faults:        16506
                          Major page faults:           37
                 Voluntary context switches:          497
