2
Lattice="10.0 0.0 0.0 0.0 10.0 0.0 0.0 0.0 9.987755770092857" Properties=species:S:1:pos:R:3 type=molecule spin_polarized=T name=O2 MACE_energy=-9.689281094721672 DFT_energy=-9.85666571 pbc="T T T"
O        0.00000000       0.00000000       0.61667811
O        0.00000000       0.00000000       9.37107766
3
Lattice="10.0 0.0 0.0 0.0 10.006045824321983 0.0 0.0 0.0 10.000842424622412" Properties=species:S:1:pos:R:3 type=molecule name=H2O MACE_energy=-14.160290476641144 DFT_energy=-14.22179706 pbc="T T T"
O        0.00000000       0.00000000       0.12055974
H        0.00000000       0.76726437       9.52311138
H        0.00000000       9.23878145       9.52311138
8
Lattice="2.8698941093649717 -1.97023134755e-05 3.6563134436e-06 -1.4349641173864713 2.485430758351596 -7.3126268858e-06 1.08094238087e-05 -1.87224712329e-05 8.67670565734885" Properties=species:S:1:pos:R:3 spacegroup="P 63/m m c" unit_cell=conventional type=material name=Co_heterogenite_2h cod_id=9009449 MACE_energy=-44.30438421427489 DFT_energy=-48.85010754 pbc="T T T"
Co       0.00001085      -0.00001879       8.67670494
Co       0.00000545      -0.00000944       4.33835212
O       -0.00002299       1.65695663       0.95935777
O        1.43494448       0.82846916       5.29771426
O       -0.00000482       1.65692518       3.37898905
O        1.43496263       0.82843769       7.71734554
H       -0.00001077       1.65695539       2.16917215
H        1.43493943       0.82845796       6.50752864
12
Lattice="2.87029702184203 -4e-16 -1e-16 -1.4351485109210083 2.4857501373220274 -1e-16 -4e-16 -7e-16 13.007598089383476" Properties=species:S:1:pos:R:3 spacegroup="R -3 m" unit_cell=conventional type=material name=Co_heterogenite_3r cod_id=9009884 MACE_energy=-66.45405886766396 DFT_energy=-73.30076302 pbc="T T T"
Co       0.00000000       0.00000000       0.00000000
Co       1.43514851       0.82858338       4.33586603
Co      -0.00000000       1.65716676       8.67173205
O       -0.00000000      -0.00000000       5.29476112
O        1.43514851       0.82858338       9.63062714
O       -0.00000000       1.65716676       0.95889509
O       -0.00000000      -0.00000000       7.71283698
O        1.43514851       0.82858338      12.04870300
O       -0.00000000       1.65716676       3.37697094
H       -0.00000000      -0.00000000       6.50379905
H        1.43514851       0.82858338      10.83966507
H       -0.00000000       1.65716676       2.16793302
5
Lattice="3.105345705723747 -4.55196777682e-05 -1.34106121648e-05 -1.552712275013028 2.6892468086036794 -5.971153721e-07 -2.04828301426e-05 -1.28605622508e-05 4.604666421695627" Properties=species:S:1:pos:R:3 spacegroup="P -3 m 1" unit_cell=conventional type=material name=Co_hydroxide cod_id=1548810 MACE_energy=-26.98486781626999 DFT_energy=-27.10044834 pbc="T T T"
Co       0.00000000       0.00000000       0.00000000
O        1.55263614       0.89638320       3.65927248
O       -0.00002320       1.79280523       0.94537993
H        1.55275586       0.89644412       2.67182736
H       -0.00014291       1.79274431       1.93282506
6
Lattice="4.85450612353316 -1.8e-15 0.333042010935694 -1e-15 2.809498536777364 1e-15 -0.3382187505098336 1.6e-15 4.997087396047329" Properties=species:S:1:pos:R:3 spacegroup="C m" unit_cell=conventional type=material name=CoO2 cod_id=3000496 MACE_energy=-34.415741867673674 DFT_energy=-38.89805004 pbc="T T T"
Co       1.69052932      -0.00000000       1.20371854
Co       4.11778237       1.40474927       1.37023955
O        3.24528600      -0.00000000       2.23908709
O        0.81803294       1.40474927       2.07256607
O        0.13575417      -0.00000000       0.16831698
O        2.56300722       1.40474927       0.33483798
56
Lattice="8.018472968603557 1e-16 1e-16 1e-16 8.018472968603557 2e-16 1e-16 2e-16 8.018472968603557" Properties=species:S:1:pos:R:3 spacegroup="F d -3 m" unit_cell=conventional type=material name=Co3O4 cod_id=1538531 MACE_energy=-336.5096342132773 DFT_energy=-378.12971602 pbc="T T T"
Co       5.01154560       5.01154560       5.01154560
Co       5.01154560       7.01616385       7.01616385
Co       3.00692736       7.01616385       1.00230912
Co       3.00692736       5.01154560       3.00692736
Co       1.00230912       3.00692736       7.01616385
Co       7.01616385       3.00692736       1.00230912
Co       7.01616385       1.00230912       3.00692736
Co       5.01154560       1.00230912       1.00230912
Co       7.01616385       7.01616385       5.01154560
Co       7.01616385       5.01154560       7.01616385
Co       1.00230912       7.01616385       3.00692736
Co       5.01154560       3.00692736       3.00692736
Co       3.00692736       1.00230912       7.01616385
Co       3.00692736       3.00692736       5.01154560
Co       1.00230912       5.01154560       1.00230912
Co       1.00230912       1.00230912       5.01154560
O        3.08314662       3.08314662       3.08314662
O        6.93994458       5.08776487       5.08776487
O        4.93532634       0.92608985       7.09238311
O        1.07852838       6.93994458       1.07852838
O        3.08314662       0.92608985       0.92608985
O        1.07852838       5.08776487       2.93070810
O        4.93532634       3.08314662       4.93532634
O        6.93994458       6.93994458       6.93994458
O        7.09238311       4.93532634       0.92608985
O        5.08776487       1.07852838       2.93070810
O        0.92608985       7.09238311       4.93532634
O        6.93994458       2.93070810       2.93070810
O        0.92608985       0.92608985       3.08314662
O        5.08776487       6.93994458       5.08776487
O        2.93070810       5.08776487       1.07852838
O        3.08314662       4.93532634       4.93532634
O        0.92608985       3.08314662       0.92608985
O        6.93994458       1.07852838       1.07852838
O        0.92608985       4.93532634       7.09238311
O        1.07852838       2.93070810       5.08776487
O        3.08314662       7.09238311       7.09238311
O        1.07852838       1.07852838       6.93994458
O        4.93532634       4.93532634       3.08314662
O        4.93532634       7.09238311       0.92608985
O        7.09238311       0.92608985       4.93532634
O        5.08776487       5.08776487       6.93994458
O        5.08776487       2.93070810       1.07852838
O        2.93070810       1.07852838       5.08776487
O        7.09238311       3.08314662       7.09238311
O        2.93070810       6.93994458       2.93070810
O        2.93070810       2.93070810       6.93994458
O        7.09238311       7.09238311       3.08314662
Co       0.00000000       0.00000000       0.00000000
Co       2.00461824       2.00461824       2.00461824
Co       0.00000000       4.00923649       4.00923649
Co       6.01385473       2.00461824       6.01385473
Co       4.00923649       0.00000000       4.00923649
Co       2.00461824       6.01385473       6.01385473
Co       4.00923649       4.00923649       0.00000000
Co       6.01385473       6.01385473       2.00461824
4
Lattice="3.4505504695336207 0.0 0.0 0.0 3.4505504695336207 0.0 -0.0 -0.0 3.4505504695336207" Properties=species:S:1:pos:R:3 spacegroup="F m -3 m" unit_cell=conventional type=material name=Co cod_id=1534891 MACE_energy=-28.286732595650037 DFT_energy=-27.35569312 pbc="T T T"
Co       0.00000000       0.00000000       0.00000000
Co       0.00000000       1.72527524       1.72527524
Co       1.72527524       0.00000000       1.72527524
Co       1.72527524       1.72527524       0.00000000
4
Lattice="5.026369429775883 0.0 0.0282007502633899 0.0 2.9016106567799316 0.0 -1.6887346839335275 0.0 2.3600317112084435" Properties=species:S:1:pos:R:3 spacegroup="C 2/m" unit_cell=conventional type=material name=CoO_1528838 cod_id=1528838 MACE_energy=-23.942309744753157 DFT_energy=-25.29049413 pbc="T T T"
Co       0.00000000       0.00000000       0.00000000
Co       0.82445003       1.45080533       2.37413209
O        4.18200209       1.45080533       1.20821660
O        1.66881737       0.00000000       1.19411623
8
Lattice="4.104143682568664 0.0 0.0 -0.0 4.104143682568664 -0.0 -0.0 0.0 4.104143682568664" Properties=species:S:1:pos:R:3 spacegroup="F m -3 m" unit_cell=conventional type=material name=CoO_1533087 cod_id=1533087 MACE_energy=-47.88461959902341 DFT_energy=-50.58075279 pbc="T T T"
Co       0.00000000       0.00000000       0.00000000
Co       0.00000000       2.05207184       2.05207184
Co       2.05207184       0.00000000       2.05207184
Co       2.05207184       2.05207184       0.00000000
O        2.05207184       2.05207184       2.05207184
O        2.05207184       0.00000000       0.00000000
O        0.00000000       2.05207184       0.00000000
O        0.00000000       0.00000000       2.05207184
