2
Lattice="10.0 0.0 0.0 0.0 10.0 0.0 0.0 0.0 9.987755770092857" Properties=species:S:1:pos:R:3 type=molecule spin_polarized=T name=O2 MACE_energy=-9.689281094721672 DFT_energy=-9.84988248 pbc="T T T"
O        0.00000000       0.00000000       0.61705182
O        0.00000000       0.00000000       9.37070395
2
Lattice="10.0 0.0 0.0 0.0 10.0 0.0 0.0 0.0 10.00860919912112" Properties=species:S:1:pos:R:3 type=molecule name=H2 MACE_energy=-6.524490120722154 DFT_energy=-6.75945507 pbc="T T T"
H        0.00000000       0.00000000       0.37546535
H        0.00000000       0.00000000       9.63314385
3
Lattice="10.0 0.0 0.0 0.0 10.006045824321983 0.0 0.0 0.0 10.000842424622412" Properties=species:S:1:pos:R:3 type=molecule name=H2O MACE_energy=-14.160290476641144 DFT_energy=-14.22550075 pbc="T T T"
O        0.00000000       0.00000000       0.12055974
H        0.00000000       0.76726437       9.52311138
H        0.00000000       9.23878145       9.52311138
4
Lattice="4.311976630182341 1e-16 0.0 1e-16 4.31197663018234 0.0 0.0 0.0 4.311976630182338" Properties=species:S:1:pos:R:3 spacegroup="F m -3 m" unit_cell=conventional type=material name=Li cod_id=9008473 MACE_energy=-7.631614335791605 DFT_energy=-7.60457514 pbc="T T T"
Li       0.00000000       0.00000000       0.00000000
Li       0.00000000       2.15598832       2.15598832
Li       2.15598832       0.00000000       2.15598832
Li       2.15598832       2.15598832       0.00000000
2
Lattice="4.195860673133581 0.0 0.0 0.0 4.195860673133581 0.0 0.0 0.0 4.195860673133581" Properties=species:S:1:pos:R:3 spacegroup="I m -3 m" unit_cell=conventional type=material name=Na cod_id=9008545 MACE_energy=-2.6170007447900026 DFT_energy=-2.60481691 pbc="T T T"
Na       0.00000000       0.00000000       0.00000000
Na       2.09793034       2.09793034       2.09793034
12
Lattice="4.5835269411927495 1e-16 -1e-16 1e-16 4.5835269411927495 -0.0 -1e-16 -0.0 4.583526941192752" Properties=species:S:1:pos:R:3 spacegroup="F m -3 m" unit_cell=conventional type=material name=Li2O cod_id=1010064 MACE_energy=-56.941585757188165 DFT_energy=-57.39975956 pbc="T T T"
O        0.00000000       0.00000000       0.00000000
O       -0.00000000       2.29176347       2.29176347
O        2.29176347       0.00000000       2.29176347
O        2.29176347       2.29176347      -0.00000000
Li       1.14588174       1.14588174       1.14588174
Li       1.14588174       3.43764521       3.43764521
Li       3.43764521       1.14588174       3.43764521
Li       3.43764521       3.43764521       1.14588174
Li       3.43764521       3.43764521       3.43764521
Li       3.43764521       1.14588174       1.14588174
Li       1.14588174       3.43764521       1.14588174
Li       1.14588174       1.14588174       3.43764521
12
Lattice="5.480012163429087 0.0 0.0 -0.0 5.480012163429087 -0.0 -0.0 0.0 5.480012163429087" Properties=species:S:1:pos:R:3 spacegroup="F m -3 m" unit_cell=conventional type=material name=Na2O cod_id=1010876 MACE_energy=-44.80192653183124 DFT_energy=-45.52211797 pbc="T T T"
O        0.00000000       0.00000000       0.00000000
O        0.00000000       2.74000608       2.74000608
O        2.74000608       0.00000000       2.74000608
O        2.74000608       2.74000608       0.00000000
Na       1.37000304       1.37000304       1.37000304
Na       1.37000304       4.11000912       4.11000912
Na       4.11000912       1.37000304       4.11000912
Na       4.11000912       4.11000912       1.37000304
Na       4.11000912       4.11000912       4.11000912
Na       4.11000912       1.37000304       1.37000304
Na       1.37000304       4.11000912       1.37000304
Na       1.37000304       1.37000304       4.11000912
8
Lattice="2.853236458345634 -0.000128088789959 2.3296012341e-06 -1.4267291573188636 2.4711673891162 -4.6592024669e-06 6.7840359287e-06 -1.17502949045e-05 8.630588600130611" Properties=species:S:1:pos:R:3 spacegroup="P 63/m m c" unit_cell=conventional type=material name=Co_heterogenite_2h cod_id=9009449 MACE_energy=-44.30438421427489 DFT_energy=-48.95275662 pbc="T T T"
Co      -0.00000020       0.00000035       0.00000156
Co       0.00000319      -0.00000553       4.31529586
O       -0.00008054       1.64741466       0.95560300
O        1.42657718       0.82364311       5.27089964
O       -0.00006386       1.64738578       3.35968363
O        1.42659385       0.82361422       7.67498026
H       -0.00007465       1.64741215       2.15764626
H        1.42657641       0.82363676       6.47294290
12
Lattice="2.8536608529226988 -5e-16 -1e-16 -1.426830426461343 2.471342792416238 -1e-16 -4e-16 -7e-16 12.941427893748793" Properties=species:S:1:pos:R:3 spacegroup="R -3 m" unit_cell=conventional type=material name=Co_heterogenite_3r cod_id=9009884 MACE_energy=-66.45405886766396 DFT_energy=-73.46086005 pbc="T T T"
Co       0.00000000       0.00000000       0.00000000
Co       1.42683043       0.82378094       4.31380930
Co      -0.00000000       1.64756186       8.62761859
O       -0.00000000      -0.00000000       5.26902224
O        1.42683043       0.82378094       9.58283153
O       -0.00000000       1.64756186       0.95521294
O       -0.00000000      -0.00000000       7.67240566
O        1.42683043       0.82378094      11.98621495
O       -0.00000000       1.64756186       3.35859636
H       -0.00000000      -0.00000000       6.47071395
H        1.42683043       0.82378094      10.78452324
H       -0.00000000       1.64756186       2.15690465
3
Lattice="2.79386917099812 -0.000234282515569 1.10046296962e-05 -1.39713748016946 2.4194445828279303 -1.10159777131e-05 5.18976980454e-05 -2.99868037361e-05 4.977646074455028" Properties=species:S:1:pos:R:3 spacegroup="P -3 m 1" unit_cell=conventional type=material name=Co_hydroxide cod_id=1010267 MACE_energy=-17.20787118993716 DFT_energy=-19.50165339 pbc="T T T"
Co       0.00000000       0.00000000       0.00000000
O       -0.00020943       1.61292795       0.92173143
O        1.39699302       0.80625236       4.05591464
4
Lattice="5.014742593231934 0.0 0.0281050673346693 0.0 2.895123729173518 0.0 -1.684844787513732 0.0 2.3549514936504927" Properties=species:S:1:pos:R:3 spacegroup="C 2/m" unit_cell=conventional type=material name=CoO cod_id=1528838 MACE_energy=-23.942309744753157 DFT_energy=-25.40681101 pbc="T T T"
Co       0.00000000       0.00000000       0.00000000
Co       0.82252651       1.44756186       2.36900403
O        4.17232020       1.44756186       1.20558081
O        1.66494890       0.00000000       1.19152828
6
Lattice="4.827314056194539 -1.7e-15 0.3310719506355426 -1e-15 2.7937910086604747 1e-15 -0.3363687355233988 1.5e-15 4.968173099765283" Properties=species:S:1:pos:R:3 spacegroup="C m" unit_cell=conventional type=material name=CoO2 cod_id=3000496 MACE_energy=-34.415741867673674 DFT_energy=-38.99979884 pbc="T T T"
Co       1.68104754      -0.00000000       1.19674137
Co       4.09470456       1.39689551       1.36227735
O        3.22702756      -0.00000000       2.22681942
O        0.81337053       1.39689551       2.06128344
O        0.13505755      -0.00000000       0.16662015
O        2.54871457       1.39689551       0.33215612
