2
Lattice="10.0 3.912943454201642e-19 2.350790106899569e-19 -2.929842046264023e-19 10.0 -1.7151524199828422e-19 2.0626804215567186e-19 -7.970612073061329e-19 9.987755770092857" Properties=species:S:1:pos:R:3 type=molecule spin_polarized=T name=O2 MACE_energy=-9.689281094721672 pbc="T T T"
O        0.00000000       0.00000000       0.61831995
O       -0.00000000      -0.00000000      -0.61831995
2
Lattice="10.0 7.003827275238049e-21 -3.877592839049749e-21 3.0138283060070506e-21 10.0 -6.331124298350788e-22 -3.3553144959661645e-21 5.218193515833931e-21 10.00860919912112" Properties=species:S:1:pos:R:3 type=molecule name=H2 MACE_energy=-6.524490120722154 pbc="T T T"
H       -0.00000000      -0.00000000       0.37358885
H       -0.00000000       0.00000000      -0.37358885
3
Lattice="10.0 -1.1921706091764718e-19 -5.184647862033782e-20 -3.276283537374069e-19 10.006045824321983 1.1657781983515483e-17 5.751907781453212e-20 1.1728860656273526e-17 10.000842424622412" Properties=species:S:1:pos:R:3 type=molecule name=H2O MACE_energy=-14.160290476641144 pbc="T T T"
O        0.00000000       0.00000000       0.12055974
H       -0.00000000       0.76726437      -0.47773104
H       -0.00000000      -0.76726437      -0.47773104
4
Lattice="4.311976630182341 8.637675024541066e-17 -3.647466992419568e-17 8.649765557414972e-17 4.31197663018234 -3.6307255602412773e-17 -3.631127241648735e-17 -3.631799029185056e-17 4.311976630182338" Properties=species:S:1:pos:R:3 spacegroup="F m -3 m" unit_cell=conventional type=material name=Li cod_id=9008473 MACE_energy=-7.631614335791605 pbc="T T T"
Li      -0.00000000      -0.00000000       0.00000000
Li       0.00000000       2.15598832       2.15598832
Li       2.15598832       0.00000000       2.15598832
Li       2.15598832       2.15598832      -0.00000000
2
Lattice="4.195860673133581 -3.7454295322935956e-19 -7.398506749768428e-19 8.103846581077624e-19 4.195860673133581 -8.37893594433833e-18 -5.156749271083652e-19 -5.94330269357415e-18 4.195860673133581" Properties=species:S:1:pos:R:3 spacegroup="I m -3 m" unit_cell=conventional type=material name=Na cod_id=9008545 MACE_energy=-2.6170007447900026 pbc="T T T"
Na      -0.00000000       0.00000000       0.00000000
Na       2.09793034       2.09793034       2.09793034
12
Lattice="4.646653180140272 6.482678414744403e-17 -6.303597939207918e-17 6.483015196521174e-17 4.646653180140272 -7.99015613597962e-18 -6.303928790266573e-17 -7.981033149186634e-18 4.646653180140275" Properties=species:S:1:pos:R:3 spacegroup="F m -3 m" unit_cell=conventional type=material name=Li2O cod_id=1010064 MACE_energy=-56.941585757188165 pbc="T T T"
O        0.00000000       0.00000000       0.00000000
O        0.00000000       2.32332659       2.32332659
O        2.32332659       0.00000000       2.32332659
O        2.32332659       2.32332659       0.00000000
Li       1.16166330       1.16166330       1.16166330
Li       1.16166330       3.48498989       3.48498989
Li       3.48498989       1.16166330       3.48498989
Li       3.48498989       3.48498989       1.16166330
Li       3.48498989       3.48498989       3.48498989
Li       3.48498989       1.16166330       1.16166330
Li       1.16166330       3.48498989       1.16166330
Li       1.16166330       1.16166330       3.48498989
12
Lattice="5.573156504506675 -2.3262643671752045e-17 -1.4905596215378266e-17 -2.3257813231287603e-17 5.573156504506675 -9.273701574175442e-18 -1.4896248856544645e-17 -9.270089272985138e-18 5.573156504506675" Properties=species:S:1:pos:R:3 spacegroup="F m -3 m" unit_cell=conventional type=material name=Na2O cod_id=1010876 MACE_energy=-44.80192653183124 pbc="T T T"
O       -0.00000000      -0.00000000      -0.00000000
O       -0.00000000       2.78657825       2.78657825
O        2.78657825      -0.00000000       2.78657825
O        2.78657825       2.78657825      -0.00000000
Na       1.39328913       1.39328913       1.39328913
Na       1.39328913       4.17986738       4.17986738
Na       4.17986738       1.39328913       4.17986738
Na       4.17986738       4.17986738       1.39328913
Na       4.17986738       4.17986738       4.17986738
Na       4.17986738       1.39328913       1.39328913
Na       1.39328913       4.17986738       1.39328913
Na       1.39328913       1.39328913       4.17986738
8
Lattice="2.8802545935441306 2.8426542529338613e-07 -9.609001992370652e-07 -1.4401270505909878 2.4943732209779035 1.921800399686537e-06 -3.169132386301626e-06 5.489098313378706e-06 8.721973289251666" Properties=species:S:1:pos:R:3 spacegroup="P 63/m m c" unit_cell=conventional type=material name=Co_heterogenite_2h cod_id=9009449 MACE_energy=-44.30438421427489 pbc="T T T"
Co      -0.00000236       0.00000409       0.00000000
Co      -0.00000394       0.00000683       4.36098665
O       -0.00001852       1.66292810       0.97625597
O        1.44012429       0.83148312       5.33724166
O        0.00000278       1.66289120       3.38473261
O        1.44014560       0.83144622       7.74571829
H       -0.00000197       1.66293359       2.18049426
H        1.44011126       0.83147153       6.54147995
12
Lattice="2.8810043399395657 -4.1956091168763517e-16 -9.148384834358189e-17 -1.4405021699697762 2.4950229468008946 -8.780240087931335e-17 -4.3458934290567285e-16 -7.221016128150884e-16 13.080162532309455" Properties=species:S:1:pos:R:3 spacegroup="R -3 m" unit_cell=conventional type=material name=Co_heterogenite_3r cod_id=9009884 MACE_energy=-66.45405886766396 pbc="T T T"
Co       0.00000000       0.00000000      -0.00000000
Co       1.44050217       0.83167432       4.36005418
Co       0.00000000       1.66334863       8.72010835
O       -0.00000000       0.00000000       5.33555644
O        1.44050217       0.83167432       9.69561061
O        0.00000000       1.66334863       0.97550226
O       -0.00000000       0.00000000       7.74460610
O        1.44050217       0.83167432      12.10466027
O        0.00000000       1.66334863       3.38455192
H       -0.00000000      -0.00000000       6.54008127
H        1.44050217       0.83167432      10.90013544
H       -0.00000000       1.66334863       2.18002709
5
Lattice="3.21081067406168 -1.5731858075904614e-05 -3.038348399437653e-05 -1.6054189612195762 2.780667208266813 2.7150607744040947e-15 -4.563556078403793e-05 -2.6347703298708927e-05 4.79647277881592" Properties=species:S:1:pos:R:3 spacegroup="P -3 m 1" unit_cell=conventional type=material name=Co_hydroxide cod_id=1548810 MACE_energy=-26.98486781626999 pbc="T T T"
Co      -0.00000000      -0.00000000      -0.00000000
O        1.60533320       0.92683956       3.74817928
O        0.00001287       1.85378557       1.04826311
H        1.60551075       0.92694206       2.77466903
H       -0.00016467       1.85368307       2.02177337
4
Lattice="5.256241227339331 -9.966136615287617e-18 0.02958110135434615 -5.043140463620172e-18 3.0346606258632054 2.3833801729221663e-17 -1.765924302850641 2.294768472298722e-17 2.468140128074539" Properties=species:S:1:pos:R:3 spacegroup="C 2/m" unit_cell=conventional type=material name=CoO_1528838 cod_id=1528838 MACE_energy=-23.942309744753157 pbc="T T T"
Co       0.00000000       0.00000000       0.00000000
Co       2.62812061       1.51733031       0.01479055
O       -0.88296215       1.51733031       1.23407006
O        1.74515846       0.00000000       1.24886061
8
Lattice="4.291821146239536 4.732484281873423e-18 4.355600009493825e-19 4.822012492828706e-18 4.291821146239536 -9.933916912051202e-19 4.8798328658810595e-19 -1.0332785948849416e-18 4.291821146239536" Properties=species:S:1:pos:R:3 spacegroup="F m -3 m" unit_cell=conventional type=material name=CoO_1533087 cod_id=1533087 MACE_energy=-47.88461959902341 pbc="T T T"
Co       0.00000000       0.00000000       0.00000000
Co      -0.00000000       2.14591057       2.14591057
Co       2.14591057      -0.00000000       2.14591057
Co       2.14591057       2.14591057       0.00000000
O        2.14591057       2.14591057       2.14591057
O        2.14591057       0.00000000      -0.00000000
O        0.00000000       2.14591057       0.00000000
O       -0.00000000      -0.00000000       2.14591057
6
Lattice="4.88321523416427 -1.77095518306826e-15 0.33496792623343224 -9.935373098598828e-16 2.8261626503382042 9.71322478882248e-16 -0.34094369379661765 1.5940672892223403e-15 5.036548661509971" Properties=species:S:1:pos:R:3 spacegroup="C m" unit_cell=conventional type=material name=CoO2 cod_id=3000496 MACE_energy=-34.415741867673674 pbc="T T T"
Co       1.70036541       0.00000000       1.21297424
Co       4.14197302       1.41308133       1.38045821
O        3.26363462       0.00000000       2.26421796
O        0.82202700       1.41308133       2.09673399
O        0.13709118       0.00000000       0.16167947
O        2.57869879       1.41308133       0.32916343
56
Lattice="8.161989894692644 1.4686638982545315e-16 7.882147049046353e-17 1.4794576114353426e-16 8.161989894692644 1.5958581828022215e-16 7.95734379808249e-17 1.5982094947492637e-16 8.161989894692644" Properties=species:S:1:pos:R:3 spacegroup="F d -3 m" unit_cell=conventional type=material name=Co3O4 cod_id=1538531 MACE_energy=-336.5096342132773 pbc="T T T"
Co       5.10124368       5.10124368       5.10124368
Co       5.10124368       7.14174116       7.14174116
Co       3.06074621       7.14174116       1.02024874
Co       3.06074621       5.10124368       3.06074621
Co       1.02024874       3.06074621       7.14174116
Co       7.14174116       3.06074621       1.02024874
Co       7.14174116       1.02024874       3.06074621
Co       5.10124368       1.02024874       1.02024874
Co       7.14174116       7.14174116       5.10124368
Co       7.14174116       5.10124368       7.14174116
Co       1.02024874       7.14174116       3.06074621
Co       5.10124368       3.06074621       3.06074621
Co       3.06074621       1.02024874       7.14174116
Co       3.06074621       3.06074621       5.10124368
Co       1.02024874       5.10124368       1.02024874
Co       1.02024874       1.02024874       5.10124368
O        3.18055265       3.18055265       3.18055265
O        7.02193471       5.22105013       5.22105013
O        4.98143724       0.90044229       7.26154760
O        1.14005518       7.02193471       1.14005518
O        3.18055265       0.90044229       0.90044229
O        1.14005518       5.22105013       2.94093977
O        4.98143724       3.18055265       4.98143724
O        7.02193471       7.02193471       7.02193471
O        7.26154760       4.98143724       0.90044229
O        5.22105013       1.14005518       2.94093977
O        0.90044229       7.26154760       4.98143724
O        7.02193471       2.94093977       2.94093977
O        0.90044229       0.90044229       3.18055265
O        5.22105013       7.02193471       5.22105013
O        2.94093977       5.22105013       1.14005518
O        3.18055265       4.98143724       4.98143724
O        0.90044229       3.18055265       0.90044229
O        7.02193471       1.14005518       1.14005518
O        0.90044229       4.98143724       7.26154760
O        1.14005518       2.94093977       5.22105013
O        3.18055265       7.26154760       7.26154760
O        1.14005518       1.14005518       7.02193471
O        4.98143724       4.98143724       3.18055265
O        4.98143724       7.26154760       0.90044229
O        7.26154760       0.90044229       4.98143724
O        5.22105013       5.22105013       7.02193471
O        5.22105013       2.94093977       1.14005518
O        2.94093977       1.14005518       5.22105013
O        7.26154760       3.18055265       7.26154760
O        2.94093977       7.02193471       2.94093977
O        2.94093977       2.94093977       7.02193471
O        7.26154760       7.26154760       3.18055265
Co      -0.00000000      -0.00000000      -0.00000000
Co       2.04049747       2.04049747       2.04049747
Co      -0.00000000       4.08099495       4.08099495
Co       6.12149242       2.04049747       6.12149242
Co       4.08099495      -0.00000000       4.08099495
Co       2.04049747       6.12149242       6.12149242
Co       4.08099495       4.08099495      -0.00000000
Co       6.12149242       6.12149242       2.04049747
