2
Lattice="10.0 0.0 0.0 0.0 10.0 0.0 0.0 0.0 10.0" Properties=species:S:1:pos:R:3 type=molecule spin_polarized=T name=O2 MACE_energy=-9.686937379532072 pbc="T T T"
O        0.00000000       0.00000000       0.62297800
O        0.00000000       0.00000000      -0.62297800
2
Lattice="10.0 0.0 0.0 0.0 10.0 0.0 0.0 0.0 10.0" Properties=species:S:1:pos:R:3 type=molecule name=H2 MACE_energy=-6.522578572709736 pbc="T T T"
H        0.00000000       0.00000000       0.36858300
H        0.00000000       0.00000000      -0.36858300
3
Lattice="10.0 0.0 0.0 0.0 10.0 0.0 0.0 0.0 10.0" Properties=species:S:1:pos:R:3 type=molecule name=H2O MACE_energy=-14.15936617752067 pbc="T T T"
O        0.00000000       0.00000000       0.11926200
H        0.00000000       0.76323900      -0.47704700
H        0.00000000      -0.76323900      -0.47704700
4
Lattice="4.404 0.0 0.0 0.0 4.404 0.0 0.0 0.0 4.404" Properties=species:S:1:pos:R:3 spacegroup="F m -3 m" unit_cell=conventional type=material name=Li cod_id=9008473 MACE_energy=-7.612018022271706 pbc="T T T"
Li       0.00000000       0.00000000       0.00000000
Li       0.00000000       2.20200000       2.20200000
Li       2.20200000       0.00000000       2.20200000
Li       2.20200000       2.20200000       0.00000000
2
Lattice="4.2906 0.0 0.0 0.0 4.2906 0.0 0.0 0.0 4.2906" Properties=species:S:1:pos:R:3 spacegroup="I m -3 m" unit_cell=conventional type=material name=Na cod_id=9008545 MACE_energy=-2.608163603375001 pbc="T T T"
Na       0.00000000       0.00000000       0.00000000
Na       2.14530000       2.14530000       2.14530000
12
Lattice="4.61 0.0 0.0 0.0 4.61 0.0 0.0 0.0 4.61" Properties=species:S:1:pos:R:3 spacegroup="F m -3 m" unit_cell=conventional type=material name=Li2O cod_id=1010064 MACE_energy=-56.92874546112093 pbc="T T T"
O        0.00000000       0.00000000       0.00000000
O        0.00000000       2.30500000       2.30500000
O        2.30500000       0.00000000       2.30500000
O        2.30500000       2.30500000       0.00000000
Li       1.15250000       1.15250000       1.15250000
Li       1.15250000       3.45750000       3.45750000
Li       3.45750000       1.15250000       3.45750000
Li       3.45750000       3.45750000       1.15250000
Li       3.45750000       3.45750000       3.45750000
Li       3.45750000       1.15250000       1.15250000
Li       1.15250000       3.45750000       1.15250000
Li       1.15250000       1.15250000       3.45750000
12
Lattice="5.55 0.0 0.0 0.0 5.55 0.0 0.0 0.0 5.55" Properties=species:S:1:pos:R:3 spacegroup="F m -3 m" unit_cell=conventional type=material name=Na2O cod_id=1010876 MACE_energy=-44.79830797482964 pbc="T T T"
O        0.00000000       0.00000000       0.00000000
O        0.00000000       2.77500000       2.77500000
O        2.77500000       0.00000000       2.77500000
O        2.77500000       2.77500000       0.00000000
Na       1.38750000       1.38750000       1.38750000
Na       1.38750000       4.16250000       4.16250000
Na       4.16250000       1.38750000       4.16250000
Na       4.16250000       4.16250000       1.38750000
Na       4.16250000       4.16250000       4.16250000
Na       4.16250000       1.38750000       1.38750000
Na       1.38750000       4.16250000       1.38750000
Na       1.38750000       1.38750000       4.16250000
8
Lattice="2.855 0.0 0.0 -1.4274999999999993 2.4725025278045725 0.0 0.0 0.0 8.805" Properties=species:S:1:pos:R:3 spacegroup="P 63/m m c" unit_cell=conventional type=material name=Co_heterogenite_2h cod_id=9009449 MACE_energy=-44.18875224379099 pbc="T T T"
Co       0.00000000       0.00000000       0.00000000
Co       0.00000000       0.00000000       4.40250000
O       -0.00001427       1.64834326       0.94829850
O        1.42750000       0.82418399       5.35079850
O        0.00000000       1.64831854       3.45420150
O        1.42751428       0.82415927       7.85670150
H       -0.00001427       1.64834326       2.20125000
H        1.42750000       0.82418399       6.60375000
12
Lattice="2.851 0.0 0.0 -1.4254999999999993 2.4690384261894347 0.0 0.0 0.0 13.15" Properties=species:S:1:pos:R:3 spacegroup="R -3 m" unit_cell=conventional type=material name=Co_heterogenite_3r cod_id=9009884 MACE_energy=-66.28198415712333 pbc="T T T"
Co       0.00000000       0.00000000       0.00000000
Co       1.42550000       0.82301281       4.38333333
Co       0.00000000       1.64602562       8.76666667
O        0.00000000       0.00000000       5.32706500
O        1.42550000       0.82301281       9.71039833
O        0.00000000       1.64602562       0.94373167
O        0.00000000       0.00000000       7.82293500
O        1.42550000       0.82301281      12.20626833
O        0.00000000       1.64602562       3.43960167
H        0.00000000       0.00000000       6.57500000
H        1.42550000       0.82301281      10.95833333
H        0.00000000       1.64602562       2.19166667
3
Lattice="3.173 0.0 0.0 -1.5864999999999994 2.747898606208024 0.0 0.0 0.0 4.64" Properties=species:S:1:pos:R:3 spacegroup="P -3 m 1" unit_cell=conventional type=material name=Co_hydroxide cod_id=1010267 MACE_energy=-16.280788915071845 pbc="T T T"
Co       0.00000000       0.00000000       0.00000000
O       -0.00015865       1.83202400       1.02080000
O        1.58665865       0.91587461       3.61920000
4
Lattice="5.18 0.0 0.0 0.0 3.015 0.0 -1.7541235770929275 0.0 2.4546566921438755" Properties=species:S:1:pos:R:3 spacegroup="C 2/m" unit_cell=conventional type=material name=CoO cod_id=1528838 MACE_energy=-23.92209336119723 pbc="T T T"
Co       0.00000000       0.00000000       0.00000000
Co       2.59000000       1.50750000       0.00000000
O       -0.87706179       1.50750000       1.22732835
O        1.71293821       0.00000000       1.22732835
6
Lattice="4.83 0.0 0.0 0.0 2.82 0.0 -0.6262789543202941 0.0 4.456206309337067" Properties=species:S:1:pos:R:3 spacegroup="C m" unit_cell=conventional type=material name=CoO2 cod_id=3000496 MACE_energy=-34.00187258703086 pbc="T T T"
Co       1.62803421       0.00000000       0.89124126
Co       4.04303421       1.41000000       0.89124126
O        3.22958447       0.00000000       2.00529284
O        0.81458447       1.41000000       2.00529284
O        0.00000000       0.00000000       0.00000000
O        2.41500000       1.41000000       0.00000000
56
Lattice="8.065 0.0 0.0 0.0 8.065 0.0 0.0 0.0 8.065" Properties=species:S:1:pos:R:3 spacegroup="F d -3 m" unit_cell=conventional type=material name=Co3O4 cod_id=1538531 MACE_energy=-336.2103016483882 pbc="T T T"
Co       5.04062500       5.04062500       5.04062500
Co       5.04062500       7.05687500       7.05687500
Co       3.02437500       7.05687500       1.00812500
Co       3.02437500       5.04062500       3.02437500
Co       1.00812500       3.02437500       7.05687500
Co       7.05687500       3.02437500       1.00812500
Co       7.05687500       1.00812500       3.02437500
Co       5.04062500       1.00812500       1.00812500
Co       7.05687500       7.05687500       5.04062500
Co       7.05687500       5.04062500       7.05687500
Co       1.00812500       7.05687500       3.02437500
Co       5.04062500       3.02437500       3.02437500
Co       3.02437500       1.00812500       7.05687500
Co       3.02437500       3.02437500       5.04062500
Co       1.00812500       5.04062500       1.00812500
Co       1.00812500       1.00812500       5.04062500
O        3.12922000       3.12922000       3.12922000
O        6.95203000       5.14547000       5.14547000
O        4.93578000       0.90328000       7.16172000
O        1.11297000       6.95203000       1.11297000
O        3.12922000       0.90328000       0.90328000
O        1.11297000       5.14547000       2.91953000
O        4.93578000       3.12922000       4.93578000
O        6.95203000       6.95203000       6.95203000
O        7.16172000       4.93578000       0.90328000
O        5.14547000       1.11297000       2.91953000
O        0.90328000       7.16172000       4.93578000
O        6.95203000       2.91953000       2.91953000
O        0.90328000       0.90328000       3.12922000
O        5.14547000       6.95203000       5.14547000
O        2.91953000       5.14547000       1.11297000
O        3.12922000       4.93578000       4.93578000
O        0.90328000       3.12922000       0.90328000
O        6.95203000       1.11297000       1.11297000
O        0.90328000       4.93578000       7.16172000
O        1.11297000       2.91953000       5.14547000
O        3.12922000       7.16172000       7.16172000
O        1.11297000       1.11297000       6.95203000
O        4.93578000       4.93578000       3.12922000
O        4.93578000       7.16172000       0.90328000
O        7.16172000       0.90328000       4.93578000
O        5.14547000       5.14547000       6.95203000
O        5.14547000       2.91953000       1.11297000
O        2.91953000       1.11297000       5.14547000
O        7.16172000       3.12922000       7.16172000
O        2.91953000       6.95203000       2.91953000
O        2.91953000       2.91953000       6.95203000
O        7.16172000       7.16172000       3.12922000
Co       0.00000000       0.00000000       0.00000000
Co       2.01625000       2.01625000       2.01625000
Co       0.00000000       4.03250000       4.03250000
Co       6.04875000       2.01625000       6.04875000
Co       4.03250000       0.00000000       4.03250000
Co       2.01625000       6.04875000       6.04875000
Co       4.03250000       4.03250000       0.00000000
Co       6.04875000       6.04875000       2.01625000
