 vasp.5.4.4.18Apr17-6-g9f103f2a35 (build Apr 13 2025 12:23:30) complex          
  
 executed on             LinuxIFC date 2025.04.17  14:00:12
 running on   16 total cores
 distrk:  each k-point on   16 cores,    1 groups
 distr:  one band on NCORES_PER_BAND=   4 cores,    4 groups


--------------------------------------------------------------------------------------------------------


 INCAR:
 POTCAR:    PAW_PBE Co 02Aug2007                  
 POTCAR:    PAW_PBE O 08Apr2002                   
 POTCAR:    PAW_PBE H 15Jun2001                   
 POTCAR:    PAW_PBE Co 02Aug2007                  
   SHA256 =  0e690c60710354995174544f52f9f2c30879afabeffe3b3fbd4001cb294e56d4 Co
   COPYR  = (c) Copyright 02Aug2007 Georg Kresse                                
   COPYR  = This file is part of the software VASP. Any use, copying, and all ot
   COPYR  = If you do not have a valid VASP license, you may not use, copy or di
   VRHFIN =Co: d8 s1                                                            
   LEXCH  = PE                                                                  
   EATOM  =   813.3670 eV,   59.7808 Ry                                         
                                                                                
   TITEL  = PAW_PBE Co 02Aug2007                                                
   LULTRA =        F    use ultrasoft PP ?                                      
   IUNSCR =        1    unscreen: 0-lin 1-nonlin 2-no                           
   RPACOR =    2.000    partial core radius                                     
   POMASS =   58.933; ZVAL   =    9.000    mass and valenz                      
   RCORE  =    2.300    outmost cutoff radius                                   
   RWIGS  =    2.460; RWIGS  =    1.302    wigner-seitz radius (au A)           
   ENMAX  =  267.968; ENMIN  =  200.976 eV                                      
   RCLOC  =    1.203    cutoff for local pot                                    
   LCOR   =        T    correct aug charges                                     
   LPAW   =        T    paw PP                                                  
   EAUG   =  477.818                                                            
   DEXC   =    0.000                                                            
   RMAX   =    2.360    core radius for proj-oper                               
   RAUG   =    1.300    factor for augmentation sphere                          
   RDEP   =    2.393    radius for radial grids                                 
   RDEPT  =    1.864    core radius for aug-charge                              
                                                                                
   Atomic configuration                                                         
    9 entries                                                                   
     n  l   j            E        occ.                                          
     1  0  0.50     -7587.6674   2.0000                                         
     2  0  0.50      -893.6084   2.0000                                         
     2  1  1.50      -764.5805   6.0000                                         
     3  0  0.50       -97.5973   2.0000                                         
     3  1  1.50       -60.9648   6.0000                                         
     3  2  2.50        -4.2382   8.0000                                         
     4  0  0.50        -4.3746   1.0000                                         
     4  1  1.50        -4.0817   0.0000                                         
     4  3  2.50        -1.3606   0.0000                                         
   Description                                                                  
     l       E           TYP  RCUT    TYP  RCUT                                 
     2     -4.2382362     23  2.300                                             
     2     -5.5988188     23  2.300                                             
     0     -4.3745797     23  2.300                                             
     0      5.7660125     23  2.300                                             
     1     -2.7211652     23  2.300                                             
     1     16.9860234     23  2.300                                             
  local pseudopotential read in
  partial core-charges read in
  partial kinetic energy density read in
  atomic valenz-charges read in
  non local Contribution for L=           2  read in
    real space projection operators read in
  non local Contribution for L=           2  read in
    real space projection operators read in
  non local Contribution for L=           0  read in
    real space projection operators read in
  non local Contribution for L=           0  read in
    real space projection operators read in
  non local Contribution for L=           1  read in
    real space projection operators read in
  non local Contribution for L=           1  read in
    real space projection operators read in
    PAW grid and wavefunctions read in
 
   number of l-projection  operators is LMAX  =           6
   number of lm-projection operators is LMMAX =          18
 
 POTCAR:    PAW_PBE O 08Apr2002                   
   SHA256 =  818f92134a0a090dccd8ba1447fa70422a3b330e708bb4f08108d8ae51209ddf O/
   COPYR  = (c) Copyright 08Apr2002 Georg Kresse                                
   COPYR  = This file is part of the software VASP. Any use, copying, and all ot
   COPYR  = If you do not have a valid VASP license, you may not use, copy or di
   VRHFIN =O: s2p4                                                              
   LEXCH  = PE                                                                  
   EATOM  =   432.3788 eV,   31.7789 Ry                                         
                                                                                
   TITEL  = PAW_PBE O 08Apr2002                                                 
   LULTRA =        F    use ultrasoft PP ?                                      
   IUNSCR =        1    unscreen: 0-lin 1-nonlin 2-no                           
   RPACOR =    1.200    partial core radius                                     
   POMASS =   16.000; ZVAL   =    6.000    mass and valenz                      
   RCORE  =    1.520    outmost cutoff radius                                   
   RWIGS  =    1.550; RWIGS  =    0.820    wigner-seitz radius (au A)           
   ENMAX  =  400.000; ENMIN  =  300.000 eV                                      
   ICORE  =        2    local potential                                         
   LCOR   =        T    correct aug charges                                     
   LPAW   =        T    paw PP                                                  
   EAUG   =  605.392                                                            
   DEXC   =    0.000                                                            
   RMAX   =    1.553    core radius for proj-oper                               
   RAUG   =    1.300    factor for augmentation sphere                          
   RDEP   =    1.550    radius for radial grids                                 
   RDEPT  =    1.329    core radius for aug-charge                              
                                                                                
   Atomic configuration                                                         
    4 entries                                                                   
     n  l   j            E        occ.                                          
     1  0  0.50      -514.6923   2.0000                                         
     2  0  0.50       -23.9615   2.0000                                         
     2  1  0.50        -9.0305   4.0000                                         
     3  2  1.50        -9.5241   0.0000                                         
   Description                                                                  
     l       E           TYP  RCUT    TYP  RCUT                                 
     0    -23.9615318     23  1.200                                             
     0     -9.5240782     23  1.200                                             
     1     -9.0304911     23  1.520                                             
     1      8.1634956     23  1.520                                             
     2     -9.5240782      7  1.500                                             
  local pseudopotential read in
  partial core-charges read in
  partial kinetic energy density read in
  kinetic energy density of atom read in
  atomic valenz-charges read in
  non local Contribution for L=           0  read in
    real space projection operators read in
  non local Contribution for L=           0  read in
    real space projection operators read in
  non local Contribution for L=           1  read in
    real space projection operators read in
  non local Contribution for L=           1  read in
    real space projection operators read in
    PAW grid and wavefunctions read in
 
   number of l-projection  operators is LMAX  =           4
   number of lm-projection operators is LMMAX =           8
 
 POTCAR:    PAW_PBE H 15Jun2001                   
   SHA256 =  030f79b5d3ab3cf0e668861823c8fb652ff669f3e15e46930bd03bfd63a607b6 H/
   COPYR  = (c) Copyright 15Jun2001 Georg Kresse                                
   COPYR  = This file is part of the software VASP. Any use, copying, and all ot
   COPYR  = If you do not have a valid VASP license, you may not use, copy or di
   VRHFIN =H: ultrasoft test                                                    
   LEXCH  = PE                                                                  
   EATOM  =    12.4884 eV,    0.9179 Ry                                         
                                                                                
   TITEL  = PAW_PBE H 15Jun2001                                                 
   LULTRA =        F    use ultrasoft PP ?                                      
   IUNSCR =        0    unscreen: 0-lin 1-nonlin 2-no                           
   RPACOR =    0.000    partial core radius                                     
   POMASS =    1.000; ZVAL   =    1.000    mass and valenz                      
   RCORE  =    1.100    outmost cutoff radius                                   
   RWIGS  =    0.700; RWIGS  =    0.370    wigner-seitz radius (au A)           
   ENMAX  =  250.000; ENMIN  =  200.000 eV                                      
   RCLOC  =    0.701    cutoff for local pot                                    
   LCOR   =        T    correct aug charges                                     
   LPAW   =        T    paw PP                                                  
   EAUG   =  400.000                                                            
   RMAX   =    1.123    core radius for proj-oper                               
   RAUG   =    1.200    factor for augmentation sphere                          
   RDEP   =    1.112    radius for radial grids                                 
   RDEPT  =    0.926    core radius for aug-charge                              
                                                                                
   Atomic configuration                                                         
    2 entries                                                                   
     n  l   j            E        occ.                                          
     1  0  0.50        -6.4927   1.0000                                         
     2  1  0.50        -3.4015   0.0000                                         
   Description                                                                  
     l       E           TYP  RCUT    TYP  RCUT                                 
     0     -6.4927494     23  1.100                                             
     0      6.8029130     23  1.100                                             
     1     -4.0817478     23  1.100                                             
  local pseudopotential read in
  atomic valenz-charges read in
  non local Contribution for L=           0  read in
    real space projection operators read in
  non local Contribution for L=           0  read in
    real space projection operators read in
  non local Contribution for L=           1  read in
    real space projection operators read in
    PAW grid and wavefunctions read in
 
   number of l-projection  operators is LMAX  =           3
   number of lm-projection operators is LMMAX =           5
 
  PAW_PBE Co 02Aug2007                  :
 energy of atom  1       EATOM= -813.3670
 kinetic energy error for atom=    0.0093 (will be added to EATOM!!)
  PAW_PBE O 08Apr2002                   :
 energy of atom  2       EATOM= -432.3788
 kinetic energy error for atom=    0.1156 (will be added to EATOM!!)
  PAW_PBE H 15Jun2001                   :
 energy of atom  3       EATOM=  -12.4884
 kinetic energy error for atom=    0.0098 (will be added to EATOM!!)
 
 
 POSCAR: Co O  H                                 
  positions in cartesian coordinates
  No initial velocities read in
 exchange correlation table for  LEXCH =        8
   RHO(1)=    0.500       N(1)  =     2000
   RHO(2)=  100.500       N(2)  =     4000

 VTST: version 3.2, (02/03/18)

 CHAIN: initializing optimizer
 
 OPT: Using VASP Conjugate-Gradient optimizer
 CHAIN: Read ICHAIN            0
 
 POSCAR: Co O  H                                 
  positions in cartesian coordinates
  No initial velocities read in
 


--------------------------------------------------------------------------------------------------------


 ion  position               nearest neighbor table
   1  0.000  0.000  1.000-   6 1.93   3 1.93   3 1.93   6 1.93   3 1.93   6 1.93
   2  0.000  0.000  0.500-   5 1.93   4 1.93   4 1.93   4 1.93   5 1.93   5 1.93
   3  0.333  0.667  0.112-   7 1.20   1 1.93   1 1.93   1 1.93
   4  0.667  0.333  0.612-   8 1.20   2 1.93   2 1.93   2 1.93
   5  0.333  0.667  0.388-   7 1.20   2 1.93   2 1.93   2 1.93
   6  0.667  0.333  0.888-   8 1.20   1 1.93   1 1.93   1 1.93
   7  0.333  0.667  0.250-   3 1.20   5 1.20
   8  0.667  0.333  0.750-   4 1.20   6 1.20
 
  LATTYP: Found a hexagonal cell.
 ALAT       =     2.8802545935
 C/A-ratio  =     3.0281952536
  
  Lattice vectors:
  
 A1 = (   2.8802545935,   0.0000002843,  -0.0000009609)
 A2 = (  -1.4401270506,   2.4943732210,   0.0000019218)
 A3 = (  -0.0000031691,   0.0000054891,   8.7219732893)


Analysis of symmetry for initial positions (statically):
=====================================================================
 Subroutine PRICEL returns:
 Original cell was already a primitive cell.
 

 Routine SETGRP: Setting up the symmetry group for a 
 hexagonal supercell.


 Subroutine GETGRP returns: Found  2 space group operations
 (whereof  1 operations were pure point group operations)
 out of a pool of 24 trial point group operations.


The static configuration has the point symmetry C_1 .
 The point group associated with its full space group is C_1h.


Analysis of symmetry for dynamics (positions and initial velocities):
=====================================================================
 Subroutine PRICEL returns:
 Original cell was already a primitive cell.
 

 Routine SETGRP: Setting up the symmetry group for a 
 hexagonal supercell.


 Subroutine GETGRP returns: Found  2 space group operations
 (whereof  1 operations were pure point group operations)
 out of a pool of 24 trial point group operations.


The dynamic configuration has the point symmetry C_1 .
 The point group associated with its full space group is C_1h.


 Subroutine INISYM returns: Found  2 space group operations
 (whereof  1 operations are pure point group operations),
 and found     1 'primitive' translations

 
 
 KPOINTS: KPOINTS created by Atomic Simulation Env

Automatic generation of k-mesh.
Space group operators:
 irot       det(A)        alpha          n_x          n_y          n_z        tau_x        tau_y        tau_z
    1     1.000000     0.000000     1.000000     0.000000     0.000000     0.000000     0.000000     0.000000
    2    -1.000000   179.999999     0.866025     0.500000    -0.000000     0.000000     0.000000     0.500000
 
 Subroutine IBZKPT returns following result:
 ===========================================
 
 Found    138 irreducible k-points:
 
 Following reciprocal coordinates:
            Coordinates               Weight
  0.000000  0.000000  0.000000      1.000000
  0.090909 -0.000000  0.000000      2.000000
  0.181818 -0.000000  0.000000      2.000000
  0.272727 -0.000000  0.000000      2.000000
  0.363636 -0.000000  0.000000      2.000000
  0.454545 -0.000000 -0.000000      2.000000
 -0.000000  0.090909  0.000000      4.000000
  0.090909  0.090909  0.000000      4.000000
  0.181818  0.090909  0.000000      4.000000
  0.272727  0.090909 -0.000000      4.000000
  0.363636  0.090909 -0.000000      4.000000
  0.454545  0.090909 -0.000000      2.000000
 -0.000000  0.181818  0.000000      4.000000
  0.090909  0.181818 -0.000000      4.000000
  0.181818  0.181818  0.000000      4.000000
  0.272727  0.181818  0.000000      4.000000
  0.363636  0.181818  0.000000      4.000000
 -0.090909  0.181818 -0.000000      2.000000
 -0.000000  0.272727  0.000000      4.000000
  0.090909  0.272727  0.000000      4.000000
  0.181818  0.272727  0.000000      4.000000
  0.272727  0.272727  0.000000      4.000000
  0.363636  0.272727  0.000000      2.000000
 -0.181818  0.272727  0.000000      4.000000
 -0.000000  0.363636  0.000000      4.000000
  0.090909  0.363636 -0.000000      4.000000
  0.181818  0.363636 -0.000000      4.000000
  0.272727  0.363636 -0.000000      4.000000
 -0.272727  0.363636  0.000000      4.000000
 -0.181818  0.363636 -0.000000      2.000000
 -0.000000  0.454545 -0.000000      4.000000
  0.090909  0.454545  0.000000      4.000000
  0.181818  0.454545 -0.000000      4.000000
  0.272727  0.454545  0.000000      2.000000
 -0.363636  0.454545  0.000000      4.000000
 -0.272727  0.454545  0.000000      4.000000
  0.000000  0.000000  0.250000      2.000000
  0.090909 -0.000000  0.250000      4.000000
  0.181818  0.000000  0.250000      4.000000
  0.272727  0.000000  0.250000      4.000000
  0.363636 -0.000000  0.250000      4.000000
  0.454545  0.000000  0.250000      4.000000
  0.000000  0.090909  0.250000      4.000000
  0.090909  0.090909  0.250000      4.000000
  0.181818  0.090909  0.250000      4.000000
  0.272727  0.090909  0.250000      4.000000
  0.363636  0.090909  0.250000      4.000000
  0.454545  0.090909  0.250000      2.000000
  0.000000  0.181818  0.250000      4.000000
  0.090909  0.181818  0.250000      4.000000
  0.181818  0.181818  0.250000      4.000000
  0.272727  0.181818  0.250000      4.000000
  0.363636  0.181818  0.250000      4.000000
 -0.090909  0.181818  0.250000      2.000000
  0.000000  0.272727  0.250000      4.000000
  0.090909  0.272727  0.250000      4.000000
  0.181818  0.272727  0.250000      4.000000
  0.272727  0.272727  0.250000      4.000000
  0.363636  0.272727  0.250000      2.000000
 -0.181818  0.272727  0.250000      4.000000
 -0.000000  0.363636  0.250000      4.000000
  0.090909  0.363636  0.250000      4.000000
  0.181818  0.363636  0.250000      4.000000
  0.272727  0.363636  0.250000      4.000000
 -0.272727  0.363636  0.250000      4.000000
 -0.181818  0.363636  0.250000      2.000000
 -0.000000  0.454545  0.250000      4.000000
  0.090909  0.454545  0.250000      4.000000
  0.181818  0.454545  0.250000      4.000000
  0.272727  0.454545  0.250000      2.000000
 -0.363636  0.454545  0.250000      4.000000
 -0.272727  0.454545  0.250000      4.000000
  0.000000 -0.454545  0.250000      4.000000
  0.090909 -0.454545  0.250000      4.000000
  0.181818 -0.454545  0.250000      4.000000
 -0.454545 -0.454545  0.250000      4.000000
 -0.363636 -0.454545  0.250000      4.000000
 -0.272727 -0.454545  0.250000      2.000000
  0.000000 -0.363636  0.250000      4.000000
  0.090909 -0.363636  0.250000      4.000000
  0.181818 -0.363636  0.250000      2.000000
  0.454545 -0.363636  0.250000      4.000000
 -0.454545 -0.363636  0.250000      4.000000
 -0.363636 -0.363636  0.250000      4.000000
  0.000000 -0.272727  0.250000      4.000000
  0.090909 -0.272727  0.250000      4.000000
  0.363636 -0.272727  0.250000      4.000000
  0.454545 -0.272727  0.250000      4.000000
 -0.454545 -0.272727  0.250000      4.000000
 -0.363636 -0.272727  0.250000      2.000000
  0.000000 -0.181818  0.250000      4.000000
  0.090909 -0.181818  0.250000      2.000000
  0.272727 -0.181818  0.250000      4.000000
  0.363636 -0.181818  0.250000      4.000000
  0.454545 -0.181818  0.250000      4.000000
 -0.454545 -0.181818  0.250000      4.000000
  0.000000 -0.090909  0.250000      4.000000
  0.181818 -0.090909  0.250000      4.000000
  0.272727 -0.090909  0.250000      4.000000
  0.363636 -0.090909  0.250000      4.000000
  0.454545 -0.090909  0.250000      4.000000
 -0.454545 -0.090909  0.250000      2.000000
  0.000000  0.000000  0.500000      1.000000
  0.090909 -0.000000  0.500000      2.000000
  0.181818 -0.000000  0.500000      2.000000
  0.272727 -0.000000  0.500000      2.000000
  0.363636  0.000000  0.500000      2.000000
  0.454545 -0.000000  0.500000      2.000000
  0.000000  0.090909  0.500000      4.000000
  0.090909  0.090909  0.500000      4.000000
  0.181818  0.090909  0.500000      4.000000
  0.272727  0.090909  0.500000      4.000000
  0.363636  0.090909  0.500000      4.000000
  0.454545  0.090909  0.500000      2.000000
  0.000000  0.181818  0.500000      4.000000
  0.090909  0.181818  0.500000      4.000000
  0.181818  0.181818  0.500000      4.000000
  0.272727  0.181818  0.500000      4.000000
  0.363636  0.181818  0.500000      4.000000
 -0.090909  0.181818  0.500000      2.000000
  0.000000  0.272727  0.500000      4.000000
  0.090909  0.272727  0.500000      4.000000
  0.181818  0.272727  0.500000      4.000000
  0.272727  0.272727  0.500000      4.000000
  0.363636  0.272727  0.500000      2.000000
 -0.181818  0.272727  0.500000      4.000000
  0.000000  0.363636  0.500000      4.000000
  0.090909  0.363636  0.500000      4.000000
  0.181818  0.363636  0.500000      4.000000
  0.272727  0.363636  0.500000      4.000000
 -0.272727  0.363636  0.500000      4.000000
 -0.181818  0.363636  0.500000      2.000000
  0.000000  0.454545  0.500000      4.000000
  0.090909  0.454545  0.500000      4.000000
  0.181818  0.454545  0.500000      4.000000
  0.272727  0.454545  0.500000      2.000000
 -0.363636  0.454545  0.500000      4.000000
 -0.272727  0.454545  0.500000      4.000000
 
 Following cartesian coordinates:
            Coordinates               Weight
  0.000000  0.000000  0.000000      1.000000
  0.031563  0.018223 -0.000000      2.000000
  0.063126  0.036446 -0.000000      2.000000
  0.094689  0.054668 -0.000000      2.000000
  0.126251  0.072891 -0.000000      2.000000
  0.157814  0.091114 -0.000000      2.000000
 -0.000000  0.036446 -0.000000      4.000000
  0.031563  0.054668 -0.000000      4.000000
  0.063126  0.072891 -0.000000      4.000000
  0.094689  0.091114 -0.000000      4.000000
  0.126251  0.109337 -0.000000      4.000000
  0.157814  0.127560 -0.000000      2.000000
 -0.000000  0.072891 -0.000000      4.000000
  0.031563  0.091114 -0.000000      4.000000
  0.063126  0.109337 -0.000000      4.000000
  0.094689  0.127560 -0.000000      4.000000
  0.126251  0.145783 -0.000000      4.000000
 -0.031563  0.054668 -0.000000      2.000000
 -0.000000  0.109337 -0.000000      4.000000
  0.031563  0.127560 -0.000000      4.000000
  0.063126  0.145783 -0.000000      4.000000
  0.094689  0.164005 -0.000000      4.000000
  0.126251  0.182228 -0.000000      2.000000
 -0.063126  0.072891 -0.000000      4.000000
 -0.000000  0.145783 -0.000000      4.000000
  0.031563  0.164005 -0.000000      4.000000
  0.063126  0.182228 -0.000000      4.000000
  0.094689  0.200451 -0.000000      4.000000
 -0.094689  0.091114 -0.000000      4.000000
 -0.063126  0.109337 -0.000000      2.000000
 -0.000000  0.182228 -0.000000      4.000000
  0.031563  0.200451 -0.000000      4.000000
  0.063126  0.218674 -0.000000      4.000000
  0.094689  0.236897 -0.000000      2.000000
 -0.126251  0.109337 -0.000000      4.000000
 -0.094689  0.127560 -0.000000      4.000000
  0.000000 -0.000000  0.028663      2.000000
  0.031563  0.018223  0.028663      4.000000
  0.063126  0.036446  0.028663      4.000000
  0.094689  0.054668  0.028663      4.000000
  0.126251  0.072891  0.028663      4.000000
  0.157814  0.091114  0.028663      4.000000
  0.000000  0.036446  0.028663      4.000000
  0.031563  0.054668  0.028663      4.000000
  0.063126  0.072891  0.028663      4.000000
  0.094689  0.091114  0.028663      4.000000
  0.126251  0.109337  0.028663      4.000000
  0.157814  0.127560  0.028663      2.000000
  0.000000  0.072891  0.028663      4.000000
  0.031563  0.091114  0.028663      4.000000
  0.063126  0.109337  0.028663      4.000000
  0.094689  0.127560  0.028663      4.000000
  0.126251  0.145783  0.028663      4.000000
 -0.031563  0.054668  0.028663      2.000000
 -0.000000  0.109337  0.028663      4.000000
  0.031563  0.127560  0.028663      4.000000
  0.063126  0.145783  0.028663      4.000000
  0.094689  0.164005  0.028663      4.000000
  0.126251  0.182228  0.028663      2.000000
 -0.063126  0.072891  0.028663      4.000000
 -0.000000  0.145783  0.028663      4.000000
  0.031563  0.164005  0.028663      4.000000
  0.063126  0.182228  0.028663      4.000000
  0.094689  0.200451  0.028663      4.000000
 -0.094689  0.091114  0.028663      4.000000
 -0.063126  0.109337  0.028663      2.000000
 -0.000000  0.182228  0.028663      4.000000
  0.031563  0.200451  0.028663      4.000000
  0.063126  0.218674  0.028663      4.000000
  0.094689  0.236897  0.028663      2.000000
 -0.126251  0.109337  0.028663      4.000000
 -0.094689  0.127560  0.028663      4.000000
  0.000000 -0.182228  0.028663      4.000000
  0.031563 -0.164006  0.028663      4.000000
  0.063126 -0.145783  0.028663      4.000000
 -0.157814 -0.273342  0.028663      4.000000
 -0.126251 -0.255120  0.028663      4.000000
 -0.094689 -0.236897  0.028663      2.000000
  0.000000 -0.145783  0.028663      4.000000
  0.031563 -0.127560  0.028663      4.000000
  0.063126 -0.109337  0.028663      2.000000
  0.157814 -0.054669  0.028663      4.000000
 -0.157814 -0.236897  0.028663      4.000000
 -0.126251 -0.218674  0.028663      4.000000
  0.000000 -0.109337  0.028663      4.000000
  0.031563 -0.091114  0.028663      4.000000
  0.126251 -0.036446  0.028663      4.000000
  0.157814 -0.018223  0.028663      4.000000
 -0.157814 -0.200451  0.028663      4.000000
 -0.126251 -0.182228  0.028663      2.000000
  0.000000 -0.072891  0.028663      4.000000
  0.031563 -0.054669  0.028663      2.000000
  0.094689 -0.018223  0.028663      4.000000
  0.126251 -0.000000  0.028663      4.000000
  0.157814  0.018223  0.028663      4.000000
 -0.157814 -0.164005  0.028663      4.000000
  0.000000 -0.036446  0.028663      4.000000
  0.063126 -0.000000  0.028663      4.000000
  0.094689  0.018223  0.028663      4.000000
  0.126251  0.036446  0.028663      4.000000
  0.157814  0.054668  0.028663      4.000000
 -0.157814 -0.127560  0.028663      2.000000
  0.000000 -0.000000  0.057326      1.000000
  0.031563  0.018223  0.057326      2.000000
  0.063126  0.036446  0.057326      2.000000
  0.094689  0.054668  0.057326      2.000000
  0.126251  0.072891  0.057326      2.000000
  0.157814  0.091114  0.057326      2.000000
  0.000000  0.036446  0.057326      4.000000
  0.031563  0.054668  0.057326      4.000000
  0.063126  0.072891  0.057326      4.000000
  0.094689  0.091114  0.057326      4.000000
  0.126251  0.109337  0.057326      4.000000
  0.157814  0.127560  0.057326      2.000000
  0.000000  0.072891  0.057326      4.000000
  0.031563  0.091114  0.057326      4.000000
  0.063126  0.109337  0.057326      4.000000
  0.094689  0.127560  0.057326      4.000000
  0.126251  0.145783  0.057326      4.000000
 -0.031563  0.054668  0.057326      2.000000
  0.000000  0.109337  0.057326      4.000000
  0.031563  0.127560  0.057326      4.000000
  0.063126  0.145783  0.057326      4.000000
  0.094689  0.164005  0.057326      4.000000
  0.126251  0.182228  0.057326      2.000000
 -0.063126  0.072891  0.057326      4.000000
  0.000000  0.145783  0.057326      4.000000
  0.031563  0.164005  0.057326      4.000000
  0.063126  0.182228  0.057326      4.000000
  0.094689  0.200451  0.057326      4.000000
 -0.094689  0.091114  0.057326      4.000000
 -0.063126  0.109337  0.057326      2.000000
  0.000000  0.182228  0.057326      4.000000
  0.031563  0.200451  0.057326      4.000000
  0.063126  0.218674  0.057326      4.000000
  0.094689  0.236897  0.057326      2.000000
 -0.126251  0.109337  0.057326      4.000000
 -0.094689  0.127560  0.057326      4.000000
 


--------------------------------------------------------------------------------------------------------




 Dimension of arrays:
   k-points           NKPTS =    138   k-points in BZ     NKDIM =    138   number of bands    NBANDS=     28
   number of dos      NEDOS =    301   number of ions     NIONS =      8
   non local maximal  LDIM  =      6   non local SUM 2l+1 LMDIM =     18
   total plane-waves  NPLWV =   9408
   max r-space proj   IRMAX =      1   max aug-charges    IRDMAX=   6120
   dimension x,y,z NGX =    14 NGY =   14 NGZ =   48
   dimension x,y,z NGXF=    28 NGYF=   28 NGZF=   96
   support grid    NGXF=    28 NGYF=   28 NGZF=   96
   ions per type =               2   4   2
   NGX,Y,Z   is equivalent  to a cutoff of   8.08,  8.08,  9.15 a.u.
   NGXF,Y,Z  is equivalent  to a cutoff of  16.16, 16.16, 18.30 a.u.

 SYSTEM =  unknown system                          
 POSCAR =  Co O  H                                 

 Startparameter for this run:
   NWRITE =      2    write-flag & timer
   PREC   = normal    normal or accurate (medium, high low for compatibility)
   ISTART =      0    job   : 0-new  1-cont  2-samecut
   ICHARG =      2    charge: 1-file 2-atom 10-const
   ISPIN  =      1    spin polarized calculation?
   LNONCOLLINEAR =      F non collinear calculations
   LSORBIT =      F    spin-orbit coupling
   INIWAV =      1    electr: 0-lowe 1-rand  2-diag
   LASPH  =      F    aspherical Exc in radial PAW
   METAGGA=      F    non-selfconsistent MetaGGA calc.

 Electronic Relaxation 1
   ENCUT  =  400.0 eV  29.40 Ry    5.42 a.u.   4.70  4.70 14.22*2*pi/ulx,y,z
   ENINI  =  400.0     initial cutoff
   ENAUG  =  605.4 eV  augmentation charge cutoff
   NELM   =     60;   NELMIN=  4; NELMDL= -5     # of ELM steps 
   EDIFF  = 0.1E-05   stopping-criterion for ELM
   LREAL  =      F    real-space projection
   NLSPLINE    = F    spline interpolate recip. space projectors
   LCOMPAT=      F    compatible to vasp.4.4
   GGA_COMPAT  = T    GGA compatible to vasp.4.4-vasp.4.6
   LMAXPAW     = -100 max onsite density
   LMAXMIX     =    2 max onsite mixed and CHGCAR
   VOSKOWN=      0    Vosko Wilk Nusair interpolation
   ROPT   =    0.00000   0.00000   0.00000
 Ionic relaxation
   EDIFFG = 0.1E-01   stopping-criterion for IOM
   NSW    =     20    number of steps for IOM
   NBLOCK =      1;   KBLOCK =     20    inner block; outer block 
   IBRION =      2    ionic relax: 0-MD 1-quasi-New 2-CG
   NFREE  =      1    steps in history (QN), initial steepest desc. (CG)
   ISIF   =      3    stress and relaxation
   IWAVPR =     11    prediction:  0-non 1-charg 2-wave 3-comb
   ISYM   =      2    0-nonsym 1-usesym 2-fastsym
   LCORR  =      T    Harris-Foulkes like correction to forces

   POTIM  = 0.5000    time-step for ionic-motion
   TEIN   =    0.0    initial temperature
   TEBEG  =    0.0;   TEEND  =   0.0 temperature during run
   SMASS  =  -3.00    Nose mass-parameter (am)
   estimated Nose-frequenzy (Omega)   =  0.10E-29 period in steps =****** mass=  -0.190E-27a.u.
   SCALEE = 1.0000    scale energy and forces
   NPACO  =    256;   APACO  = 16.0  distance and # of slots for P.C.
   PSTRESS=    0.0 pullay stress

  Mass of Ions in am
   POMASS =  58.93 16.00  1.00
  Ionic Valenz
   ZVAL   =   9.00  6.00  1.00
  Atomic Wigner-Seitz radii
   RWIGS  =  -1.00 -1.00 -1.00
  virtual crystal weights 
   VCA    =   1.00  1.00  1.00
   NELECT =      44.0000    total number of electrons
   NUPDOWN=      -1.0000    fix difference up-down

 DOS related values:
   EMIN   =  10.00;   EMAX   =-10.00  energy-range for DOS
   EFERMI =   0.00
   ISMEAR =     0;   SIGMA  =   0.10  broadening in eV -4-tet -1-fermi 0-gaus

 Electronic relaxation 2 (details)
   IALGO  =     38    algorithm
   LDIAG  =      T    sub-space diagonalisation (order eigenvalues)
   LSUBROT=      F    optimize rotation matrix (better conditioning)
   TURBO    =      0    0=normal 1=particle mesh
   IRESTART =      0    0=no restart 2=restart with 2 vectors
   NREBOOT  =      0    no. of reboots
   NMIN     =      0    reboot dimension
   EREF     =   0.00    reference energy to select bands
   IMIX   =      4    mixing-type and parameters
     AMIX     =   0.40;   BMIX     =  1.00
     AMIX_MAG =   1.60;   BMIX_MAG =  1.00
     AMIN     =   0.10
     WC   =   100.;   INIMIX=   1;  MIXPRE=   1;  MAXMIX= -45

 Intra band minimization:
   WEIMIN = 0.0010     energy-eigenvalue tresh-hold
   EBREAK =  0.89E-08  absolut break condition
   DEPER  =   0.30     relativ break condition  

   TIME   =   0.40     timestep for ELM

  volume/ion in A,a.u.               =       7.83        52.86
  Fermi-wavevector in a.u.,A,eV,Ry     =   1.455091  2.749722 28.807460  2.117289
  Thomas-Fermi vector in A             =   2.572165
 
 Write flags
   LWAVE        =      F    write WAVECAR
   LDOWNSAMPLE  =      F    k-point downsampling of WAVECAR
   LCHARG       =      F    write CHGCAR
   LVTOT        =      F    write LOCPOT, total local potential
   LVHAR        =      F    write LOCPOT, Hartree potential only
   LELF         =      F    write electronic localiz. function (ELF)
   LORBIT       =      0    0 simple, 1 ext, 2 COOP (PROOUT), +10 PAW based schemes


 Dipole corrections
   LMONO  =      F    monopole corrections only (constant potential shift)
   LDIPOL =      F    correct potential (dipole corrections)
   IDIPOL =      0    1-x, 2-y, 3-z, 4-all directions 
   EPSILON=  1.0000000 bulk dielectric constant

 Exchange correlation treatment:
   GGA     =    PE    GGA type
   LEXCH   =     8    internal setting for exchange type
   VOSKOWN=      0    Vosko Wilk Nusair interpolation
   LHFCALC =     F    Hartree Fock is set to
   LHFONE  =     F    Hartree Fock one center treatment
   AEXX    =    0.0000 exact exchange contribution

 Linear response parameters
   LEPSILON=     F    determine dielectric tensor
   LRPA    =     F    only Hartree local field effects (RPA)
   LNABLA  =     F    use nabla operator in PAW spheres
   LVEL    =     F    velocity operator in full k-point grid
   LINTERFAST=   F  fast interpolation
   KINTER  =     0    interpolate to denser k-point grid
   CSHIFT  =0.1000    complex shift for real part using Kramers Kronig
   OMEGAMAX=  -1.0    maximum frequency
   DEG_THRESHOLD= 0.2000000E-02 threshold for treating states as degnerate
   RTIME   =   -0.100 relaxation time in fs
  (WPLASMAI=    0.000 imaginary part of plasma frequency in eV, 0.658/RTIME)
   DFIELD  = 0.0000000 0.0000000 0.0000000 field for delta impulse in time
 
 Orbital magnetization related:
   ORBITALMAG=     F  switch on orbital magnetization
   LCHIMAG   =     F  perturbation theory with respect to B field
   DQ        =  0.001000  dq finite difference perturbation B field
   LLRAUG    =     F  two centre corrections for induced B field



--------------------------------------------------------------------------------------------------------


 conjugate gradient relaxation of ions
 charge density and potential will be updated during run
 non-spin polarized calculation
 Variant of blocked Davidson
 Davidson routine will perform the subspace rotation
 perform sub-space diagonalisation
    after iterative eigenvector-optimisation
 modified Broyden-mixing scheme, WC =      100.0
 initial mixing is a Kerker type mixing with AMIX =  0.4000 and BMIX =      1.0000
 Hartree-type preconditioning will be used
 using additional bands            6
 reciprocal scheme for non local part
 use partial core corrections
 calculate Harris-corrections to forces 
   (improved forces if not selfconsistent)
 use gradient corrections 
 use of overlap-Matrix (Vanderbilt PP)
 Gauss-broadening in eV      SIGMA  =   0.10


--------------------------------------------------------------------------------------------------------


  energy-cutoff  :      400.00
  volume of cell :       62.66
      direct lattice vectors                 reciprocal lattice vectors
     2.880254594  0.000000284 -0.000000961     0.347191511  0.200451112 -0.000000000
    -1.440127051  2.494373221  0.000001922    -0.000000040  0.400902293 -0.000000252
    -0.000003169  0.000005489  8.721973289     0.000000038 -0.000000066  0.114652954

  length of vectors
     2.880254594  2.880254101  8.721973289     0.400902224  0.400902293  0.114652954


 
 k-points in units of 2pi/SCALE and weight: KPOINTS created by Atomic Simulation Env
   0.00000000  0.00000000  0.00000000       0.002
   0.03156286  0.01822283 -0.00000000       0.004
   0.06312573  0.03644566 -0.00000000       0.004
   0.09468859  0.05466849 -0.00000000       0.004
   0.12625146  0.07289131 -0.00000000       0.004
   0.15781432  0.09111414 -0.00000000       0.004
  -0.00000000  0.03644566 -0.00000002       0.008
   0.03156286  0.05466849 -0.00000002       0.008
   0.06312573  0.07289132 -0.00000002       0.008
   0.09468859  0.09111415 -0.00000002       0.008
   0.12625145  0.10933698 -0.00000002       0.008
   0.15781432  0.12755980 -0.00000002       0.004
  -0.00000001  0.07289133 -0.00000005       0.008
   0.03156286  0.09111415 -0.00000005       0.008
   0.06312572  0.10933698 -0.00000005       0.008
   0.09468859  0.12755981 -0.00000005       0.008
   0.12625145  0.14578264 -0.00000005       0.008
  -0.03156287  0.05466850 -0.00000005       0.004
  -0.00000001  0.10933699 -0.00000007       0.008
   0.03156285  0.12755982 -0.00000007       0.008
   0.06312572  0.14578265 -0.00000007       0.008
   0.09468858  0.16400547 -0.00000007       0.008
   0.12625145  0.18222830 -0.00000007       0.004
  -0.06312574  0.07289133 -0.00000007       0.008
  -0.00000001  0.14578265 -0.00000009       0.008
   0.03156285  0.16400548 -0.00000009       0.008
   0.06312571  0.18222831 -0.00000009       0.008
   0.09468858  0.20045114 -0.00000009       0.008
  -0.09468861  0.09111417 -0.00000009       0.008
  -0.06312574  0.10933700 -0.00000009       0.004
  -0.00000002  0.18222831 -0.00000011       0.008
   0.03156285  0.20045114 -0.00000011       0.008
   0.06312571  0.21867397 -0.00000011       0.008
   0.09468858  0.23689680 -0.00000011       0.004
  -0.12625148  0.10933700 -0.00000011       0.008
  -0.09468861  0.12755983 -0.00000011       0.008
   0.00000001 -0.00000002  0.02866324       0.004
   0.03156287  0.01822281  0.02866324       0.008
   0.06312574  0.03644564  0.02866324       0.008
   0.09468860  0.05466847  0.02866324       0.008
   0.12625147  0.07289130  0.02866324       0.008
   0.15781433  0.09111413  0.02866324       0.008
   0.00000001  0.03644565  0.02866322       0.008
   0.03156287  0.05466847  0.02866322       0.008
   0.06312574  0.07289130  0.02866322       0.008
   0.09468860  0.09111413  0.02866322       0.008
   0.12625146  0.10933696  0.02866322       0.008
   0.15781433  0.12755979  0.02866322       0.004
   0.00000000  0.07289131  0.02866319       0.008
   0.03156287  0.09111414  0.02866319       0.008
   0.06312573  0.10933697  0.02866319       0.008
   0.09468860  0.12755979  0.02866319       0.008
   0.12625146  0.14578262  0.02866319       0.008
  -0.03156286  0.05466848  0.02866319       0.004
  -0.00000000  0.10933697  0.02866317       0.008
   0.03156286  0.12755980  0.02866317       0.008
   0.06312573  0.14578263  0.02866317       0.008
   0.09468859  0.16400546  0.02866317       0.008
   0.12625146  0.18222829  0.02866317       0.004
  -0.06312573  0.07289132  0.02866317       0.008
  -0.00000000  0.14578264  0.02866315       0.008
   0.03156286  0.16400546  0.02866315       0.008
   0.06312572  0.18222829  0.02866315       0.008
   0.09468859  0.20045112  0.02866315       0.008
  -0.09468860  0.09111415  0.02866315       0.008
  -0.06312573  0.10933698  0.02866315       0.004
  -0.00000001  0.18222830  0.02866312       0.008
   0.03156286  0.20045113  0.02866312       0.008
   0.06312572  0.21867396  0.02866312       0.008
   0.09468859  0.23689678  0.02866312       0.004
  -0.12625147  0.10933698  0.02866312       0.008
  -0.09468860  0.12755981  0.02866312       0.008
   0.00000003 -0.18222833  0.02866335       0.008
   0.03156289 -0.16400550  0.02866335       0.008
   0.06312576 -0.14578267  0.02866335       0.008
  -0.15781430 -0.27334247  0.02866335       0.008
  -0.12625143 -0.25511964  0.02866335       0.008
  -0.09468857 -0.23689682  0.02866335       0.004
   0.00000002 -0.14578267  0.02866333       0.008
   0.03156289 -0.12755984  0.02866333       0.008
   0.06312575 -0.10933701  0.02866333       0.004
   0.15781435 -0.05466853  0.02866333       0.008
  -0.15781430 -0.23689681  0.02866333       0.008
  -0.12625143 -0.21867398  0.02866333       0.008
   0.00000002 -0.10933701  0.02866331       0.008
   0.03156288 -0.09111418  0.02866331       0.008
   0.12625148 -0.03644569  0.02866331       0.008
   0.15781434 -0.01822286  0.02866331       0.008
  -0.15781430 -0.20045115  0.02866331       0.008
  -0.12625144 -0.18222832  0.02866331       0.004
   0.00000002 -0.07289134  0.02866328       0.008
   0.03156288 -0.05466851  0.02866328       0.004
   0.09468861 -0.01822286  0.02866328       0.008
   0.12625148 -0.00000003  0.02866328       0.008
   0.15781434  0.01822280  0.02866328       0.008
  -0.15781431 -0.16400548  0.02866328       0.008
   0.00000001 -0.03644568  0.02866326       0.008
   0.06312574 -0.00000002  0.02866326       0.008
   0.09468861  0.01822281  0.02866326       0.008
   0.12625147  0.03644563  0.02866326       0.008
   0.15781434  0.05466846  0.02866326       0.008
  -0.15781431 -0.12755982  0.02866326       0.004
   0.00000002 -0.00000003  0.05732648       0.002
   0.03156288  0.01822280  0.05732648       0.004
   0.06312575  0.03644562  0.05732648       0.004
   0.09468861  0.05466845  0.05732648       0.004
   0.12625148  0.07289128  0.05732648       0.004
   0.15781434  0.09111411  0.05732648       0.004
   0.00000002  0.03644563  0.05732645       0.008
   0.03156288  0.05466846  0.05732645       0.008
   0.06312574  0.07289129  0.05732645       0.008
   0.09468861  0.09111411  0.05732645       0.008
   0.12625147  0.10933694  0.05732645       0.008
   0.15781434  0.12755977  0.05732645       0.004
   0.00000001  0.07289129  0.05732643       0.008
   0.03156288  0.09111412  0.05732643       0.008
   0.06312574  0.10933695  0.05732643       0.008
   0.09468861  0.12755978  0.05732643       0.008
   0.12625147  0.14578261  0.05732643       0.008
  -0.03156285  0.05466846  0.05732643       0.004
   0.00000001  0.10933696  0.05732641       0.008
   0.03156287  0.12755978  0.05732641       0.008
   0.06312574  0.14578261  0.05732641       0.008
   0.09468860  0.16400544  0.05732641       0.008
   0.12625147  0.18222827  0.05732641       0.004
  -0.06312572  0.07289130  0.05732641       0.008
   0.00000000  0.14578262  0.05732639       0.008
   0.03156287  0.16400545  0.05732639       0.008
   0.06312573  0.18222828  0.05732639       0.008
   0.09468860  0.20045110  0.05732639       0.008
  -0.09468859  0.09111413  0.05732639       0.008
  -0.06312572  0.10933696  0.05732639       0.004
   0.00000000  0.18222828  0.05732636       0.008
   0.03156287  0.20045111  0.05732636       0.008
   0.06312573  0.21867394  0.05732636       0.008
   0.09468859  0.23689677  0.05732636       0.004
  -0.12625146  0.10933697  0.05732636       0.008
  -0.09468859  0.12755980  0.05732636       0.008
 
 k-points in reciprocal lattice and weights: KPOINTS created by Atomic Simulation Env
   0.00000000  0.00000000  0.00000000       0.002
   0.09090909 -0.00000000  0.00000000       0.004
   0.18181818 -0.00000000  0.00000000       0.004
   0.27272727 -0.00000000  0.00000000       0.004
   0.36363636 -0.00000000  0.00000000       0.004
   0.45454545 -0.00000000 -0.00000000       0.004
  -0.00000000  0.09090909  0.00000000       0.008
   0.09090909  0.09090909  0.00000000       0.008
   0.18181818  0.09090909  0.00000000       0.008
   0.27272727  0.09090909 -0.00000000       0.008
   0.36363636  0.09090909 -0.00000000       0.008
   0.45454545  0.09090909 -0.00000000       0.004
  -0.00000000  0.18181818  0.00000000       0.008
   0.09090909  0.18181818 -0.00000000       0.008
   0.18181818  0.18181818  0.00000000       0.008
   0.27272727  0.18181818  0.00000000       0.008
   0.36363636  0.18181818  0.00000000       0.008
  -0.09090909  0.18181818 -0.00000000       0.004
  -0.00000000  0.27272727  0.00000000       0.008
   0.09090909  0.27272727  0.00000000       0.008
   0.18181818  0.27272727  0.00000000       0.008
   0.27272727  0.27272727  0.00000000       0.008
   0.36363636  0.27272727  0.00000000       0.004
  -0.18181818  0.27272727  0.00000000       0.008
  -0.00000000  0.36363636  0.00000000       0.008
   0.09090909  0.36363636 -0.00000000       0.008
   0.18181818  0.36363636 -0.00000000       0.008
   0.27272727  0.36363636 -0.00000000       0.008
  -0.27272727  0.36363636  0.00000000       0.008
  -0.18181818  0.36363636 -0.00000000       0.004
  -0.00000000  0.45454545 -0.00000000       0.008
   0.09090909  0.45454545  0.00000000       0.008
   0.18181818  0.45454545 -0.00000000       0.008
   0.27272727  0.45454545  0.00000000       0.004
  -0.36363636  0.45454545  0.00000000       0.008
  -0.27272727  0.45454545  0.00000000       0.008
   0.00000000  0.00000000  0.25000000       0.004
   0.09090909 -0.00000000  0.25000000       0.008
   0.18181818  0.00000000  0.25000000       0.008
   0.27272727  0.00000000  0.25000000       0.008
   0.36363636 -0.00000000  0.25000000       0.008
   0.45454545  0.00000000  0.25000000       0.008
   0.00000000  0.09090909  0.25000000       0.008
   0.09090909  0.09090909  0.25000000       0.008
   0.18181818  0.09090909  0.25000000       0.008
   0.27272727  0.09090909  0.25000000       0.008
   0.36363636  0.09090909  0.25000000       0.008
   0.45454545  0.09090909  0.25000000       0.004
   0.00000000  0.18181818  0.25000000       0.008
   0.09090909  0.18181818  0.25000000       0.008
   0.18181818  0.18181818  0.25000000       0.008
   0.27272727  0.18181818  0.25000000       0.008
   0.36363636  0.18181818  0.25000000       0.008
  -0.09090909  0.18181818  0.25000000       0.004
   0.00000000  0.27272727  0.25000000       0.008
   0.09090909  0.27272727  0.25000000       0.008
   0.18181818  0.27272727  0.25000000       0.008
   0.27272727  0.27272727  0.25000000       0.008
   0.36363636  0.27272727  0.25000000       0.004
  -0.18181818  0.27272727  0.25000000       0.008
  -0.00000000  0.36363636  0.25000000       0.008
   0.09090909  0.36363636  0.25000000       0.008
   0.18181818  0.36363636  0.25000000       0.008
   0.27272727  0.36363636  0.25000000       0.008
  -0.27272727  0.36363636  0.25000000       0.008
  -0.18181818  0.36363636  0.25000000       0.004
  -0.00000000  0.45454545  0.25000000       0.008
   0.09090909  0.45454545  0.25000000       0.008
   0.18181818  0.45454545  0.25000000       0.008
   0.27272727  0.45454545  0.25000000       0.004
  -0.36363636  0.45454545  0.25000000       0.008
  -0.27272727  0.45454545  0.25000000       0.008
   0.00000000 -0.45454545  0.25000000       0.008
   0.09090909 -0.45454545  0.25000000       0.008
   0.18181818 -0.45454545  0.25000000       0.008
  -0.45454545 -0.45454545  0.25000000       0.008
  -0.36363636 -0.45454545  0.25000000       0.008
  -0.27272727 -0.45454545  0.25000000       0.004
   0.00000000 -0.36363636  0.25000000       0.008
   0.09090909 -0.36363636  0.25000000       0.008
   0.18181818 -0.36363636  0.25000000       0.004
   0.45454545 -0.36363636  0.25000000       0.008
  -0.45454545 -0.36363636  0.25000000       0.008
  -0.36363636 -0.36363636  0.25000000       0.008
   0.00000000 -0.27272727  0.25000000       0.008
   0.09090909 -0.27272727  0.25000000       0.008
   0.36363636 -0.27272727  0.25000000       0.008
   0.45454545 -0.27272727  0.25000000       0.008
  -0.45454545 -0.27272727  0.25000000       0.008
  -0.36363636 -0.27272727  0.25000000       0.004
   0.00000000 -0.18181818  0.25000000       0.008
   0.09090909 -0.18181818  0.25000000       0.004
   0.27272727 -0.18181818  0.25000000       0.008
   0.36363636 -0.18181818  0.25000000       0.008
   0.45454545 -0.18181818  0.25000000       0.008
  -0.45454545 -0.18181818  0.25000000       0.008
   0.00000000 -0.09090909  0.25000000       0.008
   0.18181818 -0.09090909  0.25000000       0.008
   0.27272727 -0.09090909  0.25000000       0.008
   0.36363636 -0.09090909  0.25000000       0.008
   0.45454545 -0.09090909  0.25000000       0.008
  -0.45454545 -0.09090909  0.25000000       0.004
   0.00000000  0.00000000  0.50000000       0.002
   0.09090909 -0.00000000  0.50000000       0.004
   0.18181818 -0.00000000  0.50000000       0.004
   0.27272727 -0.00000000  0.50000000       0.004
   0.36363636  0.00000000  0.50000000       0.004
   0.45454545 -0.00000000  0.50000000       0.004
   0.00000000  0.09090909  0.50000000       0.008
   0.09090909  0.09090909  0.50000000       0.008
   0.18181818  0.09090909  0.50000000       0.008
   0.27272727  0.09090909  0.50000000       0.008
   0.36363636  0.09090909  0.50000000       0.008
   0.45454545  0.09090909  0.50000000       0.004
   0.00000000  0.18181818  0.50000000       0.008
   0.09090909  0.18181818  0.50000000       0.008
   0.18181818  0.18181818  0.50000000       0.008
   0.27272727  0.18181818  0.50000000       0.008
   0.36363636  0.18181818  0.50000000       0.008
  -0.09090909  0.18181818  0.50000000       0.004
   0.00000000  0.27272727  0.50000000       0.008
   0.09090909  0.27272727  0.50000000       0.008
   0.18181818  0.27272727  0.50000000       0.008
   0.27272727  0.27272727  0.50000000       0.008
   0.36363636  0.27272727  0.50000000       0.004
  -0.18181818  0.27272727  0.50000000       0.008
   0.00000000  0.36363636  0.50000000       0.008
   0.09090909  0.36363636  0.50000000       0.008
   0.18181818  0.36363636  0.50000000       0.008
   0.27272727  0.36363636  0.50000000       0.008
  -0.27272727  0.36363636  0.50000000       0.008
  -0.18181818  0.36363636  0.50000000       0.004
   0.00000000  0.45454545  0.50000000       0.008
   0.09090909  0.45454545  0.50000000       0.008
   0.18181818  0.45454545  0.50000000       0.008
   0.27272727  0.45454545  0.50000000       0.004
  -0.36363636  0.45454545  0.50000000       0.008
  -0.27272727  0.45454545  0.50000000       0.008
 
 position of ions in fractional coordinates (direct lattice) 
   0.00000000  0.00000164  1.00000000
   0.00000000  0.00000164  0.50000000
   0.33332936  0.66667144  0.11193052
   0.66667064  0.33334209  0.61193052
   0.33332936  0.66665604  0.38806948
   0.66667065  0.33332668  0.88806948
   0.33333620  0.66667334  0.25000000
   0.66666380  0.33333714  0.75000000
 
 position of ions in cartesian coordinates  (Angst):
  -0.00000553  0.00000958  8.72197329
  -0.00000394  0.00000683  4.36098665
  -0.00001852  1.66292810  0.97625597
   1.44012429  0.83148312  5.33724166
   0.00000278  1.66289120  3.38473261
   1.44014560  0.83144622  7.74571829
  -0.00000197  1.66293359  2.18049426
   1.44011126  0.83147153  6.54147995
 


--------------------------------------------------------------------------------------------------------


 k-point  1 :   0.0000 0.0000 0.0000  plane waves:    1133
 k-point  2 :   0.0909-0.0000 0.0000  plane waves:    1134
 k-point  3 :   0.1818-0.0000 0.0000  plane waves:    1138
 k-point  4 :   0.2727-0.0000 0.0000  plane waves:    1138
 k-point  5 :   0.3636-0.0000 0.0000  plane waves:    1128
 k-point  6 :   0.4545-0.0000-0.0000  plane waves:    1144
 k-point  7 :  -0.0000 0.0909 0.0000  plane waves:    1134
 k-point  8 :   0.0909 0.0909 0.0000  plane waves:    1141
 k-point  9 :   0.1818 0.0909 0.0000  plane waves:    1133
 k-point 10 :   0.2727 0.0909-0.0000  plane waves:    1136
 k-point 11 :   0.3636 0.0909-0.0000  plane waves:    1137
 k-point 12 :   0.4545 0.0909-0.0000  plane waves:    1138
 k-point 13 :  -0.0000 0.1818 0.0000  plane waves:    1138
 k-point 14 :   0.0909 0.1818-0.0000  plane waves:    1133
 k-point 15 :   0.1818 0.1818 0.0000  plane waves:    1139
 k-point 16 :   0.2727 0.1818 0.0000  plane waves:    1143
 k-point 17 :   0.3636 0.1818 0.0000  plane waves:    1140
 k-point 18 :  -0.0909 0.1818-0.0000  plane waves:    1141
 k-point 19 :  -0.0000 0.2727 0.0000  plane waves:    1138
 k-point 20 :   0.0909 0.2727 0.0000  plane waves:    1136
 k-point 21 :   0.1818 0.2727 0.0000  plane waves:    1143
 k-point 22 :   0.2727 0.2727 0.0000  plane waves:    1133
 k-point 23 :   0.3636 0.2727 0.0000  plane waves:    1136
 k-point 24 :  -0.1818 0.2727 0.0000  plane waves:    1133
 k-point 25 :  -0.0000 0.3636 0.0000  plane waves:    1128
 k-point 26 :   0.0909 0.3636-0.0000  plane waves:    1137
 k-point 27 :   0.1818 0.3636-0.0000  plane waves:    1140
 k-point 28 :   0.2727 0.3636-0.0000  plane waves:    1136
 k-point 29 :  -0.2727 0.3636 0.0000  plane waves:    1136
 k-point 30 :  -0.1818 0.3636-0.0000  plane waves:    1139
 k-point 31 :  -0.0000 0.4545-0.0000  plane waves:    1144
 k-point 32 :   0.0909 0.4545 0.0000  plane waves:    1138
 k-point 33 :   0.1818 0.4545-0.0000  plane waves:    1140
 k-point 34 :   0.2727 0.4545 0.0000  plane waves:    1133
 k-point 35 :  -0.3636 0.4545 0.0000  plane waves:    1137
 k-point 36 :  -0.2727 0.4545 0.0000  plane waves:    1143
 k-point 37 :   0.0000 0.0000 0.2500  plane waves:    1156
 k-point 38 :   0.0909-0.0000 0.2500  plane waves:    1144
 k-point 39 :   0.1818 0.0000 0.2500  plane waves:    1139
 k-point 40 :   0.2727 0.0000 0.2500  plane waves:    1136
 k-point 41 :   0.3636-0.0000 0.2500  plane waves:    1141
 k-point 42 :   0.4545 0.0000 0.2500  plane waves:    1147
 k-point 43 :   0.0000 0.0909 0.2500  plane waves:    1144
 k-point 44 :   0.0909 0.0909 0.2500  plane waves:    1143
 k-point 45 :   0.1818 0.0909 0.2500  plane waves:    1140
 k-point 46 :   0.2727 0.0909 0.2500  plane waves:    1140
 k-point 47 :   0.3636 0.0909 0.2500  plane waves:    1141
 k-point 48 :   0.4545 0.0909 0.2500  plane waves:    1131
 k-point 49 :   0.0000 0.1818 0.2500  plane waves:    1139
 k-point 50 :   0.0909 0.1818 0.2500  plane waves:    1140
 k-point 51 :   0.1818 0.1818 0.2500  plane waves:    1145
 k-point 52 :   0.2727 0.1818 0.2500  plane waves:    1139
 k-point 53 :   0.3636 0.1818 0.2500  plane waves:    1134
 k-point 54 :  -0.0909 0.1818 0.2500  plane waves:    1143
 k-point 55 :   0.0000 0.2727 0.2500  plane waves:    1136
 k-point 56 :   0.0909 0.2727 0.2500  plane waves:    1140
 k-point 57 :   0.1818 0.2727 0.2500  plane waves:    1139
 k-point 58 :   0.2727 0.2727 0.2500  plane waves:    1127
 k-point 59 :   0.3636 0.2727 0.2500  plane waves:    1124
 k-point 60 :  -0.1818 0.2727 0.2500  plane waves:    1140
 k-point 61 :  -0.0000 0.3636 0.2500  plane waves:    1141
 k-point 62 :   0.0909 0.3636 0.2500  plane waves:    1141
 k-point 63 :   0.1818 0.3636 0.2500  plane waves:    1134
 k-point 64 :   0.2727 0.3636 0.2500  plane waves:    1124
 k-point 65 :  -0.2727 0.3636 0.2500  plane waves:    1140
 k-point 66 :  -0.1818 0.3636 0.2500  plane waves:    1145
 k-point 67 :  -0.0000 0.4545 0.2500  plane waves:    1147
 k-point 68 :   0.0909 0.4545 0.2500  plane waves:    1131
 k-point 69 :   0.1818 0.4545 0.2500  plane waves:    1134
 k-point 70 :   0.2727 0.4545 0.2500  plane waves:    1127
 k-point 71 :  -0.3636 0.4545 0.2500  plane waves:    1141
 k-point 72 :  -0.2727 0.4545 0.2500  plane waves:    1139
 k-point 73 :   0.0000-0.4545 0.2500  plane waves:    1147
 k-point 74 :   0.0909-0.4545 0.2500  plane waves:    1141
 k-point 75 :   0.1818-0.4545 0.2500  plane waves:    1139
 k-point 76 :  -0.4545-0.4545 0.2500  plane waves:    1131
 k-point 77 :  -0.3636-0.4545 0.2500  plane waves:    1134
 k-point 78 :  -0.2727-0.4545 0.2500  plane waves:    1127
 k-point 79 :   0.0000-0.3636 0.2500  plane waves:    1141
 k-point 80 :   0.0909-0.3636 0.2500  plane waves:    1140
 k-point 81 :   0.1818-0.3636 0.2500  plane waves:    1145
 k-point 82 :   0.4545-0.3636 0.2500  plane waves:    1141
 k-point 83 :  -0.4545-0.3636 0.2500  plane waves:    1134
 k-point 84 :  -0.3636-0.3636 0.2500  plane waves:    1124
 k-point 85 :   0.0000-0.2727 0.2500  plane waves:    1136
 k-point 86 :   0.0909-0.2727 0.2500  plane waves:    1140
 k-point 87 :   0.3636-0.2727 0.2500  plane waves:    1140
 k-point 88 :   0.4545-0.2727 0.2500  plane waves:    1139
 k-point 89 :  -0.4545-0.2727 0.2500  plane waves:    1127
 k-point 90 :  -0.3636-0.2727 0.2500  plane waves:    1124
 k-point 91 :   0.0000-0.1818 0.2500  plane waves:    1139
 k-point 92 :   0.0909-0.1818 0.2500  plane waves:    1143
 k-point 93 :   0.2727-0.1818 0.2500  plane waves:    1140
 k-point 94 :   0.3636-0.1818 0.2500  plane waves:    1145
 k-point 95 :   0.4545-0.1818 0.2500  plane waves:    1139
 k-point 96 :  -0.4545-0.1818 0.2500  plane waves:    1134
 k-point 97 :   0.0000-0.0909 0.2500  plane waves:    1144
 k-point 98 :   0.1818-0.0909 0.2500  plane waves:    1143
 k-point 99 :   0.2727-0.0909 0.2500  plane waves:    1140
 k-point ** :   0.3636-0.0909 0.2500  plane waves:    1140
 k-point ** :   0.4545-0.0909 0.2500  plane waves:    1141
 k-point ** :  -0.4545-0.0909 0.2500  plane waves:    1131
 k-point ** :   0.0000 0.0000 0.5000  plane waves:    1168
 k-point ** :   0.0909-0.0000 0.5000  plane waves:    1144
 k-point ** :   0.1818-0.0000 0.5000  plane waves:    1138
 k-point ** :   0.2727-0.0000 0.5000  plane waves:    1140
 k-point ** :   0.3636 0.0000 0.5000  plane waves:    1146
 k-point ** :   0.4545-0.0000 0.5000  plane waves:    1134
 k-point ** :   0.0000 0.0909 0.5000  plane waves:    1144
 k-point ** :   0.0909 0.0909 0.5000  plane waves:    1144
 k-point ** :   0.1818 0.0909 0.5000  plane waves:    1138
 k-point ** :   0.2727 0.0909 0.5000  plane waves:    1144
 k-point ** :   0.3636 0.0909 0.5000  plane waves:    1142
 k-point ** :   0.4545 0.0909 0.5000  plane waves:    1144
 k-point ** :   0.0000 0.1818 0.5000  plane waves:    1138
 k-point ** :   0.0909 0.1818 0.5000  plane waves:    1138
 k-point ** :   0.1818 0.1818 0.5000  plane waves:    1138
 k-point ** :   0.2727 0.1818 0.5000  plane waves:    1138
 k-point ** :   0.3636 0.1818 0.5000  plane waves:    1130
 k-point ** :  -0.0909 0.1818 0.5000  plane waves:    1144
 k-point ** :   0.0000 0.2727 0.5000  plane waves:    1140
 k-point ** :   0.0909 0.2727 0.5000  plane waves:    1144
 k-point ** :   0.1818 0.2727 0.5000  plane waves:    1138
 k-point ** :   0.2727 0.2727 0.5000  plane waves:    1132
 k-point ** :   0.3636 0.2727 0.5000  plane waves:    1120
 k-point ** :  -0.1818 0.2727 0.5000  plane waves:    1138
 k-point ** :   0.0000 0.3636 0.5000  plane waves:    1146
 k-point ** :   0.0909 0.3636 0.5000  plane waves:    1142
 k-point ** :   0.1818 0.3636 0.5000  plane waves:    1130
 k-point ** :   0.2727 0.3636 0.5000  plane waves:    1120
 k-point ** :  -0.2727 0.3636 0.5000  plane waves:    1144
 k-point ** :  -0.1818 0.3636 0.5000  plane waves:    1138
 k-point ** :   0.0000 0.4545 0.5000  plane waves:    1134
 k-point ** :   0.0909 0.4545 0.5000  plane waves:    1144
 k-point ** :   0.1818 0.4545 0.5000  plane waves:    1130
 k-point ** :   0.2727 0.4545 0.5000  plane waves:    1132
 k-point ** :  -0.3636 0.4545 0.5000  plane waves:    1142
 k-point ** :  -0.2727 0.4545 0.5000  plane waves:    1138

 maximum and minimum number of plane-waves per node :       310      263

 maximum number of plane-waves:      1168
 maximum index in each direction: 
   IXMAX=    5   IYMAX=    5   IZMAX=   14
   IXMIN=   -5   IYMIN=   -5   IZMIN=  -14


 parallel 3D FFT for wavefunctions:
    minimum data exchange during FFTs selected (reduces bandwidth)
 parallel 3D FFT for charge:
    minimum data exchange during FFTs selected (reduces bandwidth)


 total amount of memory used by VASP MPI-rank0    53738. kBytes
=======================================================================

   base      :      30000. kBytes
   nonl-proj :      17923. kBytes
   fftplans  :        258. kBytes
   grid      :        457. kBytes
   one-center:         31. kBytes
   wavefun   :       5069. kBytes
 
     INWAV:  cpu time    0.0001: real time    0.0003
 Broyden mixing: mesh for mixing (old mesh)
   NGX =  9   NGY =  9   NGZ = 29
  (NGX  = 28   NGY  = 28   NGZ  = 96)
  gives a total of   2349 points

 initial charge density was supplied:
 charge density of overlapping atoms calculated
 number of electron      44.0000000 magnetization 
 keeping initial charge density in first step


--------------------------------------------------------------------------------------------------------


 Maximum index for augmentation-charges          375 (set IRDMAX)


--------------------------------------------------------------------------------------------------------


 First call to EWALD:  gamma=   0.446
 Maximum number of real-space cells 4x 4x 2
 Maximum number of reciprocal cells 2x 2x 5

    FEWALD:  cpu time    0.0019: real time    0.0019


--------------------------------------- Iteration      1(   1)  ---------------------------------------


    POTLOK:  cpu time    0.0358: real time    0.0366
    SETDIJ:  cpu time    0.0037: real time    0.0037
     EDDAV:  cpu time    2.9421: real time    2.9569
       DOS:  cpu time    0.0049: real time    0.0049
    --------------------------------------------
      LOOP:  cpu time    2.9865: real time    3.0021

 eigenvalue-minimisations  :  7760
 total energy-change (2. order) : 0.4085290E+03  (-0.1842025E+04)
 number of electron      44.0000000 magnetization 
 augmentation part       44.0000000 magnetization 

 Free energy of the ion-electron system (eV)
  ---------------------------------------------------
  alpha Z        PSCENC =       134.56266798
  Ewald energy   TEWEN  =     -2569.14582705
  -Hartree energ DENC   =      -952.80128325
  -exchange      EXHF   =         0.00000000
  -V(xc)+E(xc)   XCENC  =       149.88921608
  PAW double counting   =      2832.48852169    -2945.76087566
  entropy T*S    EENTRO =        -0.00666440
  eigenvalues    EBANDS =       378.57771120
  atomic energy  EATOM  =      3380.72551767
  Solvation  Ediel_sol  =         0.00000000
  ---------------------------------------------------
  free energy    TOTEN  =       408.52898425 eV

  energy without entropy =      408.53564865  energy(sigma->0) =      408.53231645


--------------------------------------------------------------------------------------------------------




--------------------------------------- Iteration      1(   2)  ---------------------------------------


     EDDAV:  cpu time    3.1314: real time    3.1476
       DOS:  cpu time    0.0049: real time    0.0049
    --------------------------------------------
      LOOP:  cpu time    3.1363: real time    3.1525

 eigenvalue-minimisations  :  8448
 total energy-change (2. order) :-0.4133066E+03  (-0.3809440E+03)
 number of electron      44.0000000 magnetization 
 augmentation part       44.0000000 magnetization 

 Free energy of the ion-electron system (eV)
  ---------------------------------------------------
  alpha Z        PSCENC =       134.56266798
  Ewald energy   TEWEN  =     -2569.14582705
  -Hartree energ DENC   =      -952.80128325
  -exchange      EXHF   =         0.00000000
  -V(xc)+E(xc)   XCENC  =       149.88921608
  PAW double counting   =      2832.48852169    -2945.76087566
  entropy T*S    EENTRO =        -0.00449070
  eigenvalues    EBANDS =       -34.73106526
  atomic energy  EATOM  =      3380.72551767
  Solvation  Ediel_sol  =         0.00000000
  ---------------------------------------------------
  free energy    TOTEN  =        -4.77761851 eV

  energy without entropy =       -4.77312781  energy(sigma->0) =       -4.77537316


--------------------------------------------------------------------------------------------------------




--------------------------------------- Iteration      1(   3)  ---------------------------------------


     EDDAV:  cpu time    3.1998: real time    3.2177
       DOS:  cpu time    0.0031: real time    0.0032
    --------------------------------------------
      LOOP:  cpu time    3.2030: real time    3.2208

 eigenvalue-minimisations  :  8656
 total energy-change (2. order) :-0.5245039E+02  (-0.5110200E+02)
 number of electron      44.0000000 magnetization 
 augmentation part       44.0000000 magnetization 

 Free energy of the ion-electron system (eV)
  ---------------------------------------------------
  alpha Z        PSCENC =       134.56266798
  Ewald energy   TEWEN  =     -2569.14582705
  -Hartree energ DENC   =      -952.80128325
  -exchange      EXHF   =         0.00000000
  -V(xc)+E(xc)   XCENC  =       149.88921608
  PAW double counting   =      2832.48852169    -2945.76087566
  entropy T*S    EENTRO =        -0.00000000
  eigenvalues    EBANDS =       -87.18594970
  atomic energy  EATOM  =      3380.72551767
  Solvation  Ediel_sol  =         0.00000000
  ---------------------------------------------------
  free energy    TOTEN  =       -57.22801225 eV

  energy without entropy =      -57.22801225  energy(sigma->0) =      -57.22801225


--------------------------------------------------------------------------------------------------------




--------------------------------------- Iteration      1(   4)  ---------------------------------------


     EDDAV:  cpu time    3.2531: real time    3.2702
       DOS:  cpu time    0.0029: real time    0.0030
    --------------------------------------------
      LOOP:  cpu time    3.2561: real time    3.2732

 eigenvalue-minimisations  :  8900
 total energy-change (2. order) :-0.1736790E+01  (-0.1728428E+01)
 number of electron      44.0000000 magnetization 
 augmentation part       44.0000000 magnetization 

 Free energy of the ion-electron system (eV)
  ---------------------------------------------------
  alpha Z        PSCENC =       134.56266798
  Ewald energy   TEWEN  =     -2569.14582705
  -Hartree energ DENC   =      -952.80128325
  -exchange      EXHF   =         0.00000000
  -V(xc)+E(xc)   XCENC  =       149.88921608
  PAW double counting   =      2832.48852169    -2945.76087566
  entropy T*S    EENTRO =        -0.00000000
  eigenvalues    EBANDS =       -88.92273969
  atomic energy  EATOM  =      3380.72551767
  Solvation  Ediel_sol  =         0.00000000
  ---------------------------------------------------
  free energy    TOTEN  =       -58.96480224 eV

  energy without entropy =      -58.96480224  energy(sigma->0) =      -58.96480224


--------------------------------------------------------------------------------------------------------




--------------------------------------- Iteration      1(   5)  ---------------------------------------


     EDDAV:  cpu time    3.7121: real time    3.7308
       DOS:  cpu time    0.0029: real time    0.0029
    CHARGE:  cpu time    0.1777: real time    0.1784
    MIXING:  cpu time    0.0004: real time    0.0004
    --------------------------------------------
      LOOP:  cpu time    3.8932: real time    3.9126

 eigenvalue-minimisations  : 10308
 total energy-change (2. order) :-0.7118464E-01  (-0.7116459E-01)
 number of electron      43.9999825 magnetization 
 augmentation part       11.7756191 magnetization 

 Broyden mixing:
  rms(total) = 0.29398E+01    rms(broyden)= 0.29378E+01
  rms(prec ) = 0.36801E+01
  weight for this iteration     100.00

 Free energy of the ion-electron system (eV)
  ---------------------------------------------------
  alpha Z        PSCENC =       134.56266798
  Ewald energy   TEWEN  =     -2569.14582705
  -Hartree energ DENC   =      -952.80128325
  -exchange      EXHF   =         0.00000000
  -V(xc)+E(xc)   XCENC  =       149.88921608
  PAW double counting   =      2832.48852169    -2945.76087566
  entropy T*S    EENTRO =        -0.00000000
  eigenvalues    EBANDS =       -88.99392433
  atomic energy  EATOM  =      3380.72551767
  Solvation  Ediel_sol  =         0.00000000
  ---------------------------------------------------
  free energy    TOTEN  =       -59.03598688 eV

  energy without entropy =      -59.03598688  energy(sigma->0) =      -59.03598688


--------------------------------------------------------------------------------------------------------




--------------------------------------- Iteration      1(   6)  ---------------------------------------


    POTLOK:  cpu time    0.0112: real time    0.0115
    SETDIJ:  cpu time    0.0036: real time    0.0037
     EDDAV:  cpu time    3.8353: real time    3.8547
       DOS:  cpu time    0.0053: real time    0.0053
    CHARGE:  cpu time    0.1728: real time    0.1735
    MIXING:  cpu time    0.0004: real time    0.0004
    --------------------------------------------
      LOOP:  cpu time    4.0287: real time    4.0491

 eigenvalue-minimisations  : 10528
 total energy-change (2. order) : 0.1559977E+00  (-0.7950592E+01)
 number of electron      43.9999844 magnetization 
 augmentation part       15.1454773 magnetization 

 Broyden mixing:
  rms(total) = 0.35014E+01    rms(broyden)= 0.35003E+01
  rms(prec ) = 0.45449E+01
  weight for this iteration     100.00

 eigenvalues of (default mixing * dielectric matrix)
  average eigenvalue GAMMA=   0.4225
  0.4225

 Free energy of the ion-electron system (eV)
  ---------------------------------------------------
  alpha Z        PSCENC =       134.56266798
  Ewald energy   TEWEN  =     -2569.14582705
  -Hartree energ DENC   =      -949.75047018
  -exchange      EXHF   =         0.00000000
  -V(xc)+E(xc)   XCENC  =       151.74068106
  PAW double counting   =      3233.37397554    -3330.57615983
  entropy T*S    EENTRO =        -0.02002594
  eigenvalues    EBANDS =      -109.79034840
  atomic energy  EATOM  =      3380.72551767
  Solvation  Ediel_sol  =         0.00000000
  ---------------------------------------------------
  free energy    TOTEN  =       -58.87998914 eV

  energy without entropy =      -58.85996321  energy(sigma->0) =      -58.86997617


--------------------------------------------------------------------------------------------------------




--------------------------------------- Iteration      1(   7)  ---------------------------------------


    POTLOK:  cpu time    0.0112: real time    0.0114
    SETDIJ:  cpu time    0.0036: real time    0.0036
     EDDAV:  cpu time    3.3079: real time    3.3265
       DOS:  cpu time    0.0029: real time    0.0029
    CHARGE:  cpu time    0.1713: real time    0.1721
    MIXING:  cpu time    0.0004: real time    0.0004
    --------------------------------------------
      LOOP:  cpu time    3.4973: real time    3.5170

 eigenvalue-minimisations  :  8964
 total energy-change (2. order) : 0.9638084E+01  (-0.4134708E+01)
 number of electron      43.9999836 magnetization 
 augmentation part       12.2923568 magnetization 

 Broyden mixing:
  rms(total) = 0.10156E+01    rms(broyden)= 0.10141E+01
  rms(prec ) = 0.11989E+01
  weight for this iteration     100.00

 eigenvalues of (default mixing * dielectric matrix)
  average eigenvalue GAMMA=   1.0133
  0.3736  1.6530

 Free energy of the ion-electron system (eV)
  ---------------------------------------------------
  alpha Z        PSCENC =       134.56266798
  Ewald energy   TEWEN  =     -2569.14582705
  -Hartree energ DENC   =      -969.57382779
  -exchange      EXHF   =         0.00000000
  -V(xc)+E(xc)   XCENC  =       151.69066699
  PAW double counting   =      3394.96107927    -3508.27368197
  entropy T*S    EENTRO =        -0.00000000
  eigenvalues    EBANDS =       -64.18850064
  atomic energy  EATOM  =      3380.72551767
  Solvation  Ediel_sol  =         0.00000000
  ---------------------------------------------------
  free energy    TOTEN  =       -49.24190554 eV

  energy without entropy =      -49.24190554  energy(sigma->0) =      -49.24190554


--------------------------------------------------------------------------------------------------------




--------------------------------------- Iteration      1(   8)  ---------------------------------------


    POTLOK:  cpu time    0.0111: real time    0.0114
    SETDIJ:  cpu time    0.0034: real time    0.0034
     EDDAV:  cpu time    3.9751: real time    3.9951
       DOS:  cpu time    0.0039: real time    0.0039
    CHARGE:  cpu time    0.1739: real time    0.1746
    MIXING:  cpu time    0.0005: real time    0.0005
    --------------------------------------------
      LOOP:  cpu time    4.1679: real time    4.1889

 eigenvalue-minimisations  : 11052
 total energy-change (2. order) : 0.3461168E+00  (-0.6045937E+00)
 number of electron      43.9999836 magnetization 
 augmentation part       12.8659059 magnetization 

 Broyden mixing:
  rms(total) = 0.21129E+00    rms(broyden)= 0.21122E+00
  rms(prec ) = 0.24101E+00
  weight for this iteration     100.00

 eigenvalues of (default mixing * dielectric matrix)
  average eigenvalue GAMMA=   1.0654
  1.9339  0.8908  0.3714

 Free energy of the ion-electron system (eV)
  ---------------------------------------------------
  alpha Z        PSCENC =       134.56266798
  Ewald energy   TEWEN  =     -2569.14582705
  -Hartree energ DENC   =      -960.13205681
  -exchange      EXHF   =         0.00000000
  -V(xc)+E(xc)   XCENC  =       151.42621820
  PAW double counting   =      3748.17955565    -3861.35666955
  entropy T*S    EENTRO =        -0.00000032
  eigenvalues    EBANDS =       -73.15519450
  atomic energy  EATOM  =      3380.72551767
  Solvation  Ediel_sol  =         0.00000000
  ---------------------------------------------------
  free energy    TOTEN  =       -48.89578872 eV

  energy without entropy =      -48.89578840  energy(sigma->0) =      -48.89578856


--------------------------------------------------------------------------------------------------------




--------------------------------------- Iteration      1(   9)  ---------------------------------------


    POTLOK:  cpu time    0.0111: real time    0.0114
    SETDIJ:  cpu time    0.0036: real time    0.0036
     EDDAV:  cpu time    3.0181: real time    3.0333
       DOS:  cpu time    0.0037: real time    0.0037
    CHARGE:  cpu time    0.1716: real time    0.1723
    MIXING:  cpu time    0.0005: real time    0.0005
    --------------------------------------------
      LOOP:  cpu time    3.2086: real time    3.2248

 eigenvalue-minimisations  :  8100
 total energy-change (2. order) : 0.2232017E-02  (-0.4023262E-01)
 number of electron      43.9999836 magnetization 
 augmentation part       12.8469520 magnetization 

 Broyden mixing:
  rms(total) = 0.82108E-01    rms(broyden)= 0.82067E-01
  rms(prec ) = 0.97862E-01
  weight for this iteration     100.00

 eigenvalues of (default mixing * dielectric matrix)
  average eigenvalue GAMMA=   1.2646
  2.4600  0.3719  1.3796  0.8470

 Free energy of the ion-electron system (eV)
  ---------------------------------------------------
  alpha Z        PSCENC =       134.56266798
  Ewald energy   TEWEN  =     -2569.14582705
  -Hartree energ DENC   =      -965.17490477
  -exchange      EXHF   =         0.00000000
  -V(xc)+E(xc)   XCENC  =       151.74813477
  PAW double counting   =      3872.75241501    -3987.06751427
  entropy T*S    EENTRO =        -0.00000005
  eigenvalues    EBANDS =       -67.29404599
  atomic energy  EATOM  =      3380.72551767
  Solvation  Ediel_sol  =         0.00000000
  ---------------------------------------------------
  free energy    TOTEN  =       -48.89355670 eV

  energy without entropy =      -48.89355665  energy(sigma->0) =      -48.89355668


--------------------------------------------------------------------------------------------------------




--------------------------------------- Iteration      1(  10)  ---------------------------------------


    POTLOK:  cpu time    0.0110: real time    0.0112
    SETDIJ:  cpu time    0.0034: real time    0.0034
     EDDAV:  cpu time    3.8459: real time    3.8651
       DOS:  cpu time    0.0037: real time    0.0038
    CHARGE:  cpu time    0.1725: real time    0.1732
    MIXING:  cpu time    0.0005: real time    0.0005
    --------------------------------------------
      LOOP:  cpu time    4.0371: real time    4.0572

 eigenvalue-minimisations  : 10712
 total energy-change (2. order) :-0.5447592E-03  (-0.2801955E-02)
 number of electron      43.9999837 magnetization 
 augmentation part       12.8000846 magnetization 

 Broyden mixing:
  rms(total) = 0.17315E-01    rms(broyden)= 0.17286E-01
  rms(prec ) = 0.20394E-01
  weight for this iteration     100.00

 eigenvalues of (default mixing * dielectric matrix)
  average eigenvalue GAMMA=   1.2668
  2.4885  0.3719  1.5425  0.9222  1.0089

 Free energy of the ion-electron system (eV)
  ---------------------------------------------------
  alpha Z        PSCENC =       134.56266798
  Ewald energy   TEWEN  =     -2569.14582705
  -Hartree energ DENC   =      -967.88416129
  -exchange      EXHF   =         0.00000000
  -V(xc)+E(xc)   XCENC  =       151.88986113
  PAW double counting   =      3953.65665568    -4068.85339246
  entropy T*S    EENTRO =        -0.00000003
  eigenvalues    EBANDS =       -63.84542308
  atomic energy  EATOM  =      3380.72551767
  Solvation  Ediel_sol  =         0.00000000
  ---------------------------------------------------
  free energy    TOTEN  =       -48.89410146 eV

  energy without entropy =      -48.89410143  energy(sigma->0) =      -48.89410145


--------------------------------------------------------------------------------------------------------




--------------------------------------- Iteration      1(  11)  ---------------------------------------


    POTLOK:  cpu time    0.0111: real time    0.0114
    SETDIJ:  cpu time    0.0036: real time    0.0036
     EDDAV:  cpu time    3.6400: real time    3.6592
       DOS:  cpu time    0.0036: real time    0.0036
    CHARGE:  cpu time    0.1728: real time    0.1737
    MIXING:  cpu time    0.0006: real time    0.0006
    --------------------------------------------
      LOOP:  cpu time    3.8317: real time    3.8519

 eigenvalue-minimisations  : 10068
 total energy-change (2. order) :-0.1859934E-03  (-0.2091020E-03)
 number of electron      43.9999837 magnetization 
 augmentation part       12.8104260 magnetization 

 Broyden mixing:
  rms(total) = 0.79296E-02    rms(broyden)= 0.79000E-02
  rms(prec ) = 0.88987E-02
  weight for this iteration     100.00

 eigenvalues of (default mixing * dielectric matrix)
  average eigenvalue GAMMA=   1.3820
  2.5219  2.3036  0.3719  1.1981  1.0053  0.8913

 Free energy of the ion-electron system (eV)
  ---------------------------------------------------
  alpha Z        PSCENC =       134.56266798
  Ewald energy   TEWEN  =     -2569.14582705
  -Hartree energ DENC   =      -967.78161953
  -exchange      EXHF   =         0.00000000
  -V(xc)+E(xc)   XCENC  =       151.88085950
  PAW double counting   =      3953.95767769    -4068.97499217
  entropy T*S    EENTRO =        -0.00000004
  eigenvalues    EBANDS =       -64.11857151
  atomic energy  EATOM  =      3380.72551767
[...]
     17       4.5107      2.00000
     18       4.5108      2.00000
     19       4.8549      2.00000
     20       4.8549      2.00000
     21       5.1976      2.00000
     22       5.1976      2.00000
     23       6.8207      0.00000
     24       6.8207      0.00000
     25       6.8806      0.00000
     26       6.8807      0.00000
     27      16.2711      0.00000
     28      16.2712      0.00000

 k-point   131 :      -0.2727    0.3636    0.5000
  band No.  band energies     occupation 
      1     -14.6413      2.00000
      2     -14.6413      2.00000
      3     -13.3168      2.00000
      4     -13.3168      2.00000
      5      -3.0954      2.00000
      6      -3.0953      2.00000
      7      -0.9324      2.00000
      8      -0.9324      2.00000
      9       0.1080      2.00000
     10       0.1081      2.00000
     11       0.4433      2.00000
     12       0.4433      2.00000
     13       1.5454      2.00000
     14       1.5454      2.00000
     15       2.0359      2.00000
     16       2.0360      2.00000
     17       4.5184      2.00000
     18       4.5184      2.00000
     19       4.9579      2.00000
     20       4.9580      2.00000
     21       5.1614      2.00000
     22       5.1614      2.00000
     23       6.6793      0.00000
     24       6.6793      0.00000
     25       7.1853      0.00000
     26       7.1854      0.00000
     27      14.2253      0.00000
     28      14.2253      0.00000

 k-point   132 :      -0.1818    0.3636    0.5000
  band No.  band energies     occupation 
      1     -14.6812      2.00000
      2     -14.6812      2.00000
      3     -13.3250      2.00000
      4     -13.3250      2.00000
      5      -3.1018      2.00000
      6      -3.1017      2.00000
      7      -0.7851      2.00000
      8      -0.7851      2.00000
      9       0.0593      2.00000
     10       0.0593      2.00000
     11       0.5302      2.00000
     12       0.5303      2.00000
     13       1.3383      2.00000
     14       1.3383      2.00000
     15       2.1157      2.00000
     16       2.1158      2.00000
     17       4.6146      2.00000
     18       4.6146      2.00000
     19       4.9909      2.00000
     20       4.9909      2.00000
     21       5.1790      2.00000
     22       5.1790      2.00000
     23       6.7234      0.00000
     24       6.7234      0.00000
     25       7.0219      0.00000
     26       7.0219      0.00000
     27      14.1971      0.00000
     28      14.1972      0.00000

 k-point   133 :       0.0000    0.4545    0.5000
  band No.  band energies     occupation 
      1     -14.3563      2.00000
      2     -14.3563      2.00000
      3     -13.2358      2.00000
      4     -13.2358      2.00000
      5      -2.9974      2.00000
      6      -2.9973      2.00000
      7      -1.5710      2.00000
      8      -1.5709      2.00000
      9       0.2838      2.00000
     10       0.2839      2.00000
     11       0.3514      2.00000
     12       0.3515      2.00000
     13       1.6358      2.00000
     14       1.6359      2.00000
     15       1.6402      2.00000
     16       1.6402      2.00000
     17       4.3275      2.00000
     18       4.3275      2.00000
     19       4.8024      2.00000
     20       4.8024      2.00000
     21       5.0681      2.00000
     22       5.0681      2.00000
     23       6.8105      0.00000
     24       6.8106      0.00000
     25       7.3864      0.00000
     26       7.3865      0.00000
     27      15.0122      0.00000
     28      15.0123      0.00000

 k-point   134 :       0.0909    0.4545    0.5000
  band No.  band energies     occupation 
      1     -14.3179      2.00000
      2     -14.3179      2.00000
      3     -13.2139      2.00000
      4     -13.2139      2.00000
      5      -2.9482      2.00000
      6      -2.9481      2.00000
      7      -1.5515      2.00000
      8      -1.5515      2.00000
      9      -0.0108      2.00000
     10      -0.0107      2.00000
     11       0.6720      2.00000
     12       0.6721      2.00000
     13       1.2534      2.00000
     14       1.2534      2.00000
     15       1.6801      2.00000
     16       1.6802      2.00000
     17       4.3985      2.00000
     18       4.3986      2.00000
     19       4.8061      2.00000
     20       4.8062      2.00000
     21       5.0750      2.00000
     22       5.0750      2.00000
     23       6.8268      0.00000
     24       6.8268      0.00000
     25       7.2757      0.00000
     26       7.2758      0.00000
     27      15.4036      0.00000
     28      15.4037      0.00000

 k-point   135 :       0.1818    0.4545    0.5000
  band No.  band energies     occupation 
      1     -14.2986      2.00000
      2     -14.2986      2.00000
      3     -13.1874      2.00000
      4     -13.1874      2.00000
      5      -2.8611      2.00000
      6      -2.8610      2.00000
      7      -1.3211      2.00000
      8      -1.3211      2.00000
      9      -0.2388      2.00000
     10      -0.2387      2.00000
     11       0.5275      2.00000
     12       0.5275      2.00000
     13       1.0197      2.00000
     14       1.0198      2.00000
     15       1.6961      2.00000
     16       1.6961      2.00000
     17       4.5038      2.00000
     18       4.5038      2.00000
     19       4.8426      2.00000
     20       4.8426      2.00000
     21       5.1395      2.00000
     22       5.1395      2.00000
     23       6.8143      0.00000
     24       6.8143      0.00000
     25       7.0370      0.00000
     26       7.0371      0.00000
     27      15.5920      0.00000
     28      15.5921      0.00000

 k-point   136 :       0.2727    0.4545    0.5000
  band No.  band energies     occupation 
      1     -14.2942      2.00000
      2     -14.2941      2.00000
      3     -13.1758      2.00000
      4     -13.1758      2.00000
      5      -2.8188      2.00000
      6      -2.8187      2.00000
      7      -1.1166      2.00000
      8      -1.1166      2.00000
      9      -0.2351      2.00000
     10      -0.2350      2.00000
     11       0.0494      2.00000
     12       0.0494      2.00000
     13       1.1337      2.00000
     14       1.1338      2.00000
     15       1.7017      2.00000
     16       1.7018      2.00000
     17       4.5435      2.00000
     18       4.5435      2.00000
     19       4.8521      2.00000
     20       4.8521      2.00000
     21       5.1864      2.00000
     22       5.1864      2.00000
     23       6.8072      0.00000
     24       6.8072      0.00000
     25       6.9104      0.00000
     26       6.9105      0.00000
     27      15.6478      0.00000
     28      15.6478      0.00000

 k-point   137 :      -0.3636    0.4545    0.5000
  band No.  band energies     occupation 
      1     -14.4056      2.00000
      2     -14.4055      2.00000
      3     -13.2456      2.00000
      4     -13.2455      2.00000
      5      -2.9856      2.00000
      6      -2.9855      2.00000
      7      -1.3712      2.00000
      8      -1.3712      2.00000
      9       0.0280      2.00000
     10       0.0280      2.00000
     11       0.5391      2.00000
     12       0.5392      2.00000
     13       1.3719      2.00000
     14       1.3719      2.00000
     15       1.7794      2.00000
     16       1.7795      2.00000
     17       4.4408      2.00000
     18       4.4408      2.00000
     19       4.8574      2.00000
     20       4.8575      2.00000
     21       5.0977      2.00000
     22       5.0977      2.00000
     23       6.7697      0.00000
     24       6.7697      0.00000
     25       7.2464      0.00000
     26       7.2465      0.00000
     27      14.8793      0.00000
     28      14.8794      0.00000

 k-point   138 :      -0.2727    0.4545    0.5000
  band No.  band energies     occupation 
      1     -14.4395      2.00000
      2     -14.4395      2.00000
      3     -13.2465      2.00000
      4     -13.2464      2.00000
      5      -2.9584      2.00000
      6      -2.9583      2.00000
      7      -1.0840      2.00000
      8      -1.0839      2.00000
      9      -0.0371      2.00000
     10      -0.0371      2.00000
     11       0.3557      2.00000
     12       0.3557      2.00000
     13       1.1292      2.00000
     14       1.1292      2.00000
     15       1.9056      2.00000
     16       1.9057      2.00000
     17       4.5691      2.00000
     18       4.5691      2.00000
     19       4.9158      2.00000
     20       4.9158      2.00000
     21       5.1427      2.00000
     22       5.1427      2.00000
     23       6.7611      0.00000
     24       6.7612      0.00000
     25       7.0101      0.00000
     26       7.0102      0.00000
     27      14.9095      0.00000
     28      14.9095      0.00000


--------------------------------------------------------------------------------------------------------


 soft charge-density along one line, spin component           1
         0         1         2         3         4         5         6         7         8         9
 total charge-density along one line
 
 pseudopotential strength for first ion, spin component:           1
 -3.367   0.000  -0.000   0.151  -0.000  -3.905   0.000  -0.000
  0.000  -3.393   0.000   0.000   0.151   0.000  -3.929   0.000
 -0.000   0.000  -3.175   0.000  -0.000  -0.000   0.000  -3.719
  0.151   0.000   0.000  -3.393   0.000   0.145   0.000   0.000
 -0.000   0.151  -0.000   0.000  -3.367  -0.000   0.145  -0.000
 -3.905   0.000  -0.000   0.145  -0.000  -4.387   0.000  -0.000
  0.000  -3.929   0.000   0.000   0.145   0.000  -4.410   0.000
 -0.000   0.000  -3.719   0.000  -0.000  -0.000   0.000  -4.208
  0.145   0.000   0.000  -3.929   0.000   0.140   0.000   0.000
 -0.000   0.145  -0.000   0.000  -3.905  -0.000   0.140  -0.000
 -0.000  -0.000  -0.011  -0.000  -0.000  -0.000  -0.000  -0.011
 -0.000  -0.000  -0.019  -0.000  -0.000  -0.000  -0.000  -0.019
  0.000   0.000   0.000  -0.000   0.000   0.000   0.000   0.000
 -0.000  -0.000   0.000   0.000   0.000  -0.000  -0.000   0.000
 -0.000  -0.000  -0.000   0.000   0.000  -0.000  -0.000  -0.000
  0.000   0.000   0.000  -0.000   0.000   0.000   0.000   0.000
 -0.000  -0.000   0.000   0.000   0.000  -0.000  -0.000   0.000
 -0.000  -0.000  -0.000   0.000   0.000  -0.000  -0.000  -0.000
 total augmentation occupancy for first ion, spin component:           1
  6.565  -0.000  -0.000   1.231  -0.001  -5.040   0.000   0.000   0.602   0.000  -0.000   0.000   0.000   0.000   0.000  -0.000
 -0.000   4.315  -0.000   0.000   1.231   0.000  -3.864   0.000  -0.000   0.553   0.000  -0.000  -0.000  -0.000  -0.000   0.000
 -0.000  -0.000   6.433  -0.000  -0.000   0.000   0.000  -3.563   0.000   0.000   0.850  -0.217  -0.000   0.000   0.000  -0.000
  1.231   0.000  -0.000   4.316  -0.000   0.554  -0.000   0.000  -3.864   0.000   0.001  -0.000  -0.000   0.000  -0.000  -0.000
 -0.001   1.231  -0.000  -0.000   6.566   0.000   0.601   0.000   0.000  -5.040  -0.000   0.000   0.000  -0.000   0.000  -0.000
 -5.040   0.000   0.000   0.554   0.000   5.105  -0.001  -0.000  -1.809  -0.000   0.000  -0.000   0.000  -0.000  -0.000  -0.000
  0.000  -3.864   0.000  -0.000   0.601  -0.001   4.656  -0.000   0.000  -1.808  -0.000   0.000   0.000   0.000  -0.000  -0.000
  0.000   0.000  -3.563   0.000   0.000  -0.000  -0.000   2.717  -0.000  -0.000  -0.790   0.213   0.000  -0.000  -0.000   0.000
  0.602  -0.000   0.000  -3.864   0.000  -1.809   0.000  -0.000   4.657  -0.001  -0.001   0.000  -0.000  -0.000   0.000   0.000
  0.000   0.553   0.000   0.000  -5.040  -0.000  -1.808  -0.000  -0.001   5.105   0.000  -0.000  -0.000   0.000   0.000   0.000
 -0.000   0.000   0.850   0.001  -0.000   0.000  -0.000  -0.790  -0.001   0.000   2.850  -0.586  -0.000   0.000   0.000   0.000
  0.000  -0.000  -0.217  -0.000   0.000  -0.000   0.000   0.213   0.000  -0.000  -0.586   0.150  -0.000  -0.000   0.000  -0.000
  0.000  -0.000  -0.000  -0.000   0.000   0.000   0.000   0.000  -0.000  -0.000  -0.000  -0.000   0.509  -0.000   0.000  -0.087
  0.000  -0.000   0.000   0.000  -0.000  -0.000   0.000  -0.000  -0.000   0.000   0.000  -0.000  -0.000   0.404  -0.000   0.000
  0.000  -0.000   0.000  -0.000   0.000  -0.000  -0.000  -0.000   0.000   0.000   0.000   0.000   0.000  -0.000   0.509  -0.000
 -0.000   0.000  -0.000  -0.000  -0.000  -0.000  -0.000   0.000   0.000   0.000   0.000  -0.000  -0.087   0.000  -0.000   0.018
 -0.000  -0.000  -0.000   0.000   0.000   0.000   0.000   0.000  -0.000  -0.000  -0.000   0.000   0.000  -0.063   0.000  -0.000
 -0.000  -0.000   0.000   0.000  -0.000   0.000   0.000  -0.000  -0.000  -0.000  -0.000   0.000  -0.000   0.000  -0.087   0.000


------------------------ aborting loop because EDIFF is reached ----------------------------------------


    CHARGE:  cpu time    0.1733: real time    0.1741
    FORLOC:  cpu time    0.0008: real time    0.0008
    FORNL :  cpu time    0.4158: real time    0.4174
    STRESS:  cpu time    1.1713: real time    1.1755
    FORCOR:  cpu time    0.0108: real time    0.0108
    FORHAR:  cpu time    0.0032: real time    0.0033
    MIXING:  cpu time    0.0006: real time    0.0006
    OFIELD:  cpu time    0.0000: real time    0.0000

  FORCE on cell =-STRESS in cart. coord.  units (eV):
  Direction    XX          YY          ZZ          XY          YZ          ZX
  --------------------------------------------------------------------------------------
  Alpha Z   138.56789   138.56789   138.56789
  Ewald    -618.44862  -618.49005 -1348.83310     0.03588    -0.01164     0.00672
  Hartree   518.68983   518.66791   -71.04971     0.01897    -0.00510     0.00294
  E(xc)    -218.80357  -218.80347  -217.71260     0.00043     0.00007     0.00020
  Local    -752.00981  -751.94599   584.50519    -0.06242     0.01532    -0.01050
  n-local  -109.21103  -108.13463  -112.59582     0.30800     0.00199     0.00966
  augment   336.23438   336.23443   339.88512     0.00207     0.00035     0.00014
  Kinetic   705.36575   703.78122   686.78729    -0.46142    -0.00418    -0.00844
  Fock        0.00000     0.00000     0.00000     0.00000     0.00000     0.00000
  -------------------------------------------------------------------------------------
  Total       0.12609     0.13606    -0.44575    -0.00864    -0.00027     0.00015
  in kB       3.31976     3.58241   -11.73629    -0.22746    -0.00703     0.00407
  external pressure =       -1.61 kB  Pullay stress =        0.00 kB


 VOLUME and BASIS-vectors are now :
 -----------------------------------------------------------------------------
  energy-cutoff  :      400.00
  volume of cell :       60.85
      direct lattice vectors                 reciprocal lattice vectors
     2.853236458 -0.000128089  0.000002330     0.350488273  0.202354499 -0.000000000
    -1.426729157  2.471167389 -0.000004659     0.000018167  0.404677532  0.000000551
     0.000006784 -0.000011750  8.630588600    -0.000000095  0.000000164  0.115866953

  length of vectors
     2.853236461  2.853458315  8.630588600     0.404708998  0.404677532  0.115866953


 FORCES acting on ions
    electron-ion (+dipol)            ewald-force                    non-local-force                 convergence-correction
 -----------------------------------------------------------------------------------------------
   0.843E-04 -.143E-03 0.849E-04   -.771E-04 0.129E-03 -.139E-03   -.677E-05 0.115E-04 -.322E-04   0.206E-06 -.395E-06 0.188E-04
   0.820E-04 -.147E-03 0.825E-04   -.753E-04 0.133E-03 -.145E-03   -.658E-05 0.116E-04 -.322E-04   0.239E-06 -.376E-06 0.188E-04
   0.167E-01 0.108E-01 -.219E+03   -.190E-01 -.123E-01 0.222E+03   0.189E-02 0.112E-02 -.279E+01   0.114E-04 0.561E-05 -.123E-02
   -.180E-01 -.921E-02 -.219E+03   0.201E-01 0.103E-01 0.222E+03   -.191E-02 -.108E-02 -.279E+01   -.106E-04 -.705E-05 -.123E-02
   0.177E-01 0.974E-02 0.219E+03   -.197E-01 -.111E-01 -.222E+03   0.170E-02 0.145E-02 0.279E+01   0.101E-04 0.781E-05 0.124E-02
   -.170E-01 -.102E-01 0.219E+03   0.194E-01 0.115E-01 -.222E+03   -.211E-02 -.749E-03 0.279E+01   -.118E-04 -.482E-05 0.124E-02
   0.836E-03 -.463E-03 0.565E-03   -.831E-03 0.447E-03 -.636E-03   0.317E-04 -.427E-04 0.832E-04   0.430E-06 0.281E-06 -.327E-05
   -.166E-04 -.955E-03 0.567E-03   0.279E-04 0.944E-03 -.637E-03   0.211E-04 -.488E-04 0.832E-04   -.459E-06 -.232E-06 -.327E-05
 -----------------------------------------------------------------------------------------------
   0.396E-03 -.665E-03 0.533E-03   -.130E-13 0.228E-13 0.462E-13   -.386E-03 0.669E-03 -.569E-03   -.475E-06 0.823E-06 0.386E-04
 
 
 POSITION                                       TOTAL-FORCE (eV/Angst)
 -----------------------------------------------------------------------------------
     -0.00000      0.00000      0.00000         0.000001     -0.000002     -0.000073
      0.00000     -0.00001      4.31530         0.000001     -0.000002     -0.000073
     -0.00008      1.64741      0.95560        -0.000212     -0.000304      0.040583
      1.42658      0.82364      5.27090         0.000369      0.000031      0.040583
     -0.00006      1.64739      3.35968        -0.000405      0.000030     -0.040519
      1.42659      0.82361      7.67498         0.000176      0.000366     -0.040519
     -0.00007      1.64741      2.15765         0.000037     -0.000058      0.000009
      1.42658      0.82364      6.47294         0.000032     -0.000061      0.000009
 -----------------------------------------------------------------------------------
    total drift:                                0.000009      0.000005      0.000002


--------------------------------------------------------------------------------------------------------



  FREE ENERGIE OF THE ION-ELECTRON SYSTEM (eV)
  ---------------------------------------------------
  free  energy   TOTEN  =       -48.95275662 eV

  energy  without entropy=      -48.95275662  energy(sigma->0) =      -48.95275662
 
 d Force = 0.1456067E-01[ 0.179E-02, 0.273E-01]  d Energy = 0.6326519E-01-0.487E-01
 d Force = 0.1004538E+02[ 0.983E+01, 0.103E+02]  d Ewald  =-0.1664663E+02 0.267E+02


--------------------------------------------------------------------------------------------------------


    POTLOK:  cpu time    0.0146: real time    0.0146


--------------------------------------------------------------------------------------------------------


 stress matrix after NEB project (eV)
      0.12609     -0.00864      0.00015
     -0.00864      0.13606     -0.00027
      0.00015     -0.00027     -0.44575
  FORCES: max atom, RMS     0.040584    0.028675
  FORCE total and by dimension    0.081106    0.040583
  Stress total and by dimension    0.482960    0.445748


--------------------------------------------------------------------------------------------------------


  
 reached required accuracy - stopping structural energy minimisation
     LOOP+:  cpu time   34.2506: real time   34.4249
    4ORBIT:  cpu time    0.0000: real time    0.0000

 total amount of memory used by VASP MPI-rank0    53738. kBytes
=======================================================================

   base      :      30000. kBytes
   nonl-proj :      17923. kBytes
   fftplans  :        258. kBytes
   grid      :        457. kBytes
   one-center:         31. kBytes
   wavefun   :       5069. kBytes
 
  
  
 General timing and accounting informations for this job:
 ========================================================
  
                  Total CPU time used (sec):      132.132
                            User time (sec):      130.480
                          System time (sec):        1.652
                         Elapsed time (sec):      132.915
  
                   Maximum memory used (kb):       67144.
                   Average memory used (kb):           0.
  
                          Minor page faults:        24877
                          Major page faults:           13
                 Voluntary context switches:          719
