 vasp.5.4.4.18Apr17-6-g9f103f2a35 (build Apr 13 2025 12:23:30) complex          
  
 executed on             LinuxIFC date 2025.04.17  14:00:13
 running on   16 total cores
 distrk:  each k-point on   16 cores,    1 groups
 distr:  one band on NCORES_PER_BAND=   4 cores,    4 groups


--------------------------------------------------------------------------------------------------------


 INCAR:
 POTCAR:    PAW_PBE Co 02Aug2007                  
 POTCAR:    PAW_PBE O 08Apr2002                   
 POTCAR:    PAW_PBE H 15Jun2001                   
 POTCAR:    PAW_PBE Co 02Aug2007                  
   SHA256 =  0e690c60710354995174544f52f9f2c30879afabeffe3b3fbd4001cb294e56d4 Co
   COPYR  = (c) Copyright 02Aug2007 Georg Kresse                                
   COPYR  = This file is part of the software VASP. Any use, copying, and all ot
   COPYR  = If you do not have a valid VASP license, you may not use, copy or di
   VRHFIN =Co: d8 s1                                                            
   LEXCH  = PE                                                                  
   EATOM  =   813.3670 eV,   59.7808 Ry                                         
                                                                                
   TITEL  = PAW_PBE Co 02Aug2007                                                
   LULTRA =        F    use ultrasoft PP ?                                      
   IUNSCR =        1    unscreen: 0-lin 1-nonlin 2-no                           
   RPACOR =    2.000    partial core radius                                     
   POMASS =   58.933; ZVAL   =    9.000    mass and valenz                      
   RCORE  =    2.300    outmost cutoff radius                                   
   RWIGS  =    2.460; RWIGS  =    1.302    wigner-seitz radius (au A)           
   ENMAX  =  267.968; ENMIN  =  200.976 eV                                      
   RCLOC  =    1.203    cutoff for local pot                                    
   LCOR   =        T    correct aug charges                                     
   LPAW   =        T    paw PP                                                  
   EAUG   =  477.818                                                            
   DEXC   =    0.000                                                            
   RMAX   =    2.360    core radius for proj-oper                               
   RAUG   =    1.300    factor for augmentation sphere                          
   RDEP   =    2.393    radius for radial grids                                 
   RDEPT  =    1.864    core radius for aug-charge                              
                                                                                
   Atomic configuration                                                         
    9 entries                                                                   
     n  l   j            E        occ.                                          
     1  0  0.50     -7587.6674   2.0000                                         
     2  0  0.50      -893.6084   2.0000                                         
     2  1  1.50      -764.5805   6.0000                                         
     3  0  0.50       -97.5973   2.0000                                         
     3  1  1.50       -60.9648   6.0000                                         
     3  2  2.50        -4.2382   8.0000                                         
     4  0  0.50        -4.3746   1.0000                                         
     4  1  1.50        -4.0817   0.0000                                         
     4  3  2.50        -1.3606   0.0000                                         
   Description                                                                  
     l       E           TYP  RCUT    TYP  RCUT                                 
     2     -4.2382362     23  2.300                                             
     2     -5.5988188     23  2.300                                             
     0     -4.3745797     23  2.300                                             
     0      5.7660125     23  2.300                                             
     1     -2.7211652     23  2.300                                             
     1     16.9860234     23  2.300                                             
  local pseudopotential read in
  partial core-charges read in
  partial kinetic energy density read in
  atomic valenz-charges read in
  non local Contribution for L=           2  read in
    real space projection operators read in
  non local Contribution for L=           2  read in
    real space projection operators read in
  non local Contribution for L=           0  read in
    real space projection operators read in
  non local Contribution for L=           0  read in
    real space projection operators read in
  non local Contribution for L=           1  read in
    real space projection operators read in
  non local Contribution for L=           1  read in
    real space projection operators read in
    PAW grid and wavefunctions read in
 
   number of l-projection  operators is LMAX  =           6
   number of lm-projection operators is LMMAX =          18
 
 POTCAR:    PAW_PBE O 08Apr2002                   
   SHA256 =  818f92134a0a090dccd8ba1447fa70422a3b330e708bb4f08108d8ae51209ddf O/
   COPYR  = (c) Copyright 08Apr2002 Georg Kresse                                
   COPYR  = This file is part of the software VASP. Any use, copying, and all ot
   COPYR  = If you do not have a valid VASP license, you may not use, copy or di
   VRHFIN =O: s2p4                                                              
   LEXCH  = PE                                                                  
   EATOM  =   432.3788 eV,   31.7789 Ry                                         
                                                                                
   TITEL  = PAW_PBE O 08Apr2002                                                 
   LULTRA =        F    use ultrasoft PP ?                                      
   IUNSCR =        1    unscreen: 0-lin 1-nonlin 2-no                           
   RPACOR =    1.200    partial core radius                                     
   POMASS =   16.000; ZVAL   =    6.000    mass and valenz                      
   RCORE  =    1.520    outmost cutoff radius                                   
   RWIGS  =    1.550; RWIGS  =    0.820    wigner-seitz radius (au A)           
   ENMAX  =  400.000; ENMIN  =  300.000 eV                                      
   ICORE  =        2    local potential                                         
   LCOR   =        T    correct aug charges                                     
   LPAW   =        T    paw PP                                                  
   EAUG   =  605.392                                                            
   DEXC   =    0.000                                                            
   RMAX   =    1.553    core radius for proj-oper                               
   RAUG   =    1.300    factor for augmentation sphere                          
   RDEP   =    1.550    radius for radial grids                                 
   RDEPT  =    1.329    core radius for aug-charge                              
                                                                                
   Atomic configuration                                                         
    4 entries                                                                   
     n  l   j            E        occ.                                          
     1  0  0.50      -514.6923   2.0000                                         
     2  0  0.50       -23.9615   2.0000                                         
     2  1  0.50        -9.0305   4.0000                                         
     3  2  1.50        -9.5241   0.0000                                         
   Description                                                                  
     l       E           TYP  RCUT    TYP  RCUT                                 
     0    -23.9615318     23  1.200                                             
     0     -9.5240782     23  1.200                                             
     1     -9.0304911     23  1.520                                             
     1      8.1634956     23  1.520                                             
     2     -9.5240782      7  1.500                                             
  local pseudopotential read in
  partial core-charges read in
  partial kinetic energy density read in
  kinetic energy density of atom read in
  atomic valenz-charges read in
  non local Contribution for L=           0  read in
    real space projection operators read in
  non local Contribution for L=           0  read in
    real space projection operators read in
  non local Contribution for L=           1  read in
    real space projection operators read in
  non local Contribution for L=           1  read in
    real space projection operators read in
    PAW grid and wavefunctions read in
 
   number of l-projection  operators is LMAX  =           4
   number of lm-projection operators is LMMAX =           8
 
 POTCAR:    PAW_PBE H 15Jun2001                   
   SHA256 =  030f79b5d3ab3cf0e668861823c8fb652ff669f3e15e46930bd03bfd63a607b6 H/
   COPYR  = (c) Copyright 15Jun2001 Georg Kresse                                
   COPYR  = This file is part of the software VASP. Any use, copying, and all ot
   COPYR  = If you do not have a valid VASP license, you may not use, copy or di
   VRHFIN =H: ultrasoft test                                                    
   LEXCH  = PE                                                                  
   EATOM  =    12.4884 eV,    0.9179 Ry                                         
                                                                                
   TITEL  = PAW_PBE H 15Jun2001                                                 
   LULTRA =        F    use ultrasoft PP ?                                      
   IUNSCR =        0    unscreen: 0-lin 1-nonlin 2-no                           
   RPACOR =    0.000    partial core radius                                     
   POMASS =    1.000; ZVAL   =    1.000    mass and valenz                      
   RCORE  =    1.100    outmost cutoff radius                                   
   RWIGS  =    0.700; RWIGS  =    0.370    wigner-seitz radius (au A)           
   ENMAX  =  250.000; ENMIN  =  200.000 eV                                      
   RCLOC  =    0.701    cutoff for local pot                                    
   LCOR   =        T    correct aug charges                                     
   LPAW   =        T    paw PP                                                  
   EAUG   =  400.000                                                            
   RMAX   =    1.123    core radius for proj-oper                               
   RAUG   =    1.200    factor for augmentation sphere                          
   RDEP   =    1.112    radius for radial grids                                 
   RDEPT  =    0.926    core radius for aug-charge                              
                                                                                
   Atomic configuration                                                         
    2 entries                                                                   
     n  l   j            E        occ.                                          
     1  0  0.50        -6.4927   1.0000                                         
     2  1  0.50        -3.4015   0.0000                                         
   Description                                                                  
     l       E           TYP  RCUT    TYP  RCUT                                 
     0     -6.4927494     23  1.100                                             
     0      6.8029130     23  1.100                                             
     1     -4.0817478     23  1.100                                             
  local pseudopotential read in
  atomic valenz-charges read in
  non local Contribution for L=           0  read in
    real space projection operators read in
  non local Contribution for L=           0  read in
    real space projection operators read in
  non local Contribution for L=           1  read in
    real space projection operators read in
    PAW grid and wavefunctions read in
 
   number of l-projection  operators is LMAX  =           3
   number of lm-projection operators is LMMAX =           5
 
  PAW_PBE Co 02Aug2007                  :
 energy of atom  1       EATOM= -813.3670
 kinetic energy error for atom=    0.0093 (will be added to EATOM!!)
  PAW_PBE O 08Apr2002                   :
 energy of atom  2       EATOM= -432.3788
 kinetic energy error for atom=    0.1156 (will be added to EATOM!!)
  PAW_PBE H 15Jun2001                   :
 energy of atom  3       EATOM=  -12.4884
 kinetic energy error for atom=    0.0098 (will be added to EATOM!!)
 
 
 POSCAR: Co O  H                                 
  positions in cartesian coordinates
  No initial velocities read in
 exchange correlation table for  LEXCH =        8
   RHO(1)=    0.500       N(1)  =     2000
   RHO(2)=  100.500       N(2)  =     4000

 VTST: version 3.2, (02/03/18)

 CHAIN: initializing optimizer
 
 OPT: Using VASP Conjugate-Gradient optimizer
 CHAIN: Read ICHAIN            0
 
 POSCAR: Co O  H                                 
  positions in cartesian coordinates
  No initial velocities read in
 


--------------------------------------------------------------------------------------------------------


 ion  position               nearest neighbor table
   1  0.000  0.000  0.000-   8 1.93   6 1.93   6 1.93   6 1.93   8 1.93   8 1.93
   2  0.667  0.333  0.333-   4 1.93   9 1.93   9 1.93   4 1.93   4 1.93   9 1.93
   3  0.333  0.667  0.667-   7 1.93   7 1.93   7 1.93   5 1.93   5 1.93   5 1.93
   4  0.000  0.000  0.408-  10 1.20   2 1.93   2 1.93   2 1.93
   5  0.667  0.333  0.741-  11 1.20   3 1.93   3 1.93   3 1.93
   6  0.333  0.667  0.075-  12 1.20   1 1.93   1 1.93   1 1.93
   7  0.000  0.000  0.592-  10 1.20   3 1.93   3 1.93   3 1.93
   8  0.667  0.333  0.925-  11 1.20   1 1.93   1 1.93   1 1.93
   9  0.333  0.667  0.259-  12 1.20   2 1.93   2 1.93   2 1.93
  10  0.000  0.000  0.500-   7 1.20   4 1.20
  11  0.667  0.333  0.833-   8 1.20   5 1.20
  12  0.333  0.667  0.167-   9 1.20   6 1.20
 
  LATTYP: Found a hexagonal cell.
 ALAT       =     2.8810043399
 C/A-ratio  =     4.5401398224
  
  Lattice vectors:
  
 A1 = (   2.8810043399,  -0.0000000000,  -0.0000000000)
 A2 = (  -1.4405021700,   2.4950229468,  -0.0000000000)
 A3 = (  -0.0000000000,  -0.0000000000,  13.0801625323)


Analysis of symmetry for initial positions (statically):
=====================================================================
 Subroutine PRICEL returns following result:
 
  LATTYP: Found a trigonal (rhomboedric) cell.
 ALAT       =     4.6665620150
 COS(alpha) =     0.8094259581
  
  Lattice vectors:
  
 A1 = (   1.4405021699,   0.8316743068,   4.3600541723)
 A2 = (  -1.4405021699,   0.8316743200,   4.3600541800)
 A3 = (   0.0000000000,  -1.6633486268,   4.3600541800)
 
   3 primitive cells build up your supercell.
 

 Routine SETGRP: Setting up the symmetry group for a 
 hexagonal supercell.


 Subroutine GETGRP returns: Found 12 space group operations
 (whereof 12 operations were pure point group operations)
 out of a pool of 24 trial point group operations.


The static configuration has the point symmetry D_3d.


Analysis of symmetry for dynamics (positions and initial velocities):
=====================================================================
 Subroutine PRICEL returns following result:
 
  LATTYP: Found a trigonal (rhomboedric) cell.
 ALAT       =     4.6665620150
 COS(alpha) =     0.8094259581
  
  Lattice vectors:
  
 A1 = (   1.4405021699,   0.8316743068,   4.3600541723)
 A2 = (  -1.4405021699,   0.8316743200,   4.3600541800)
 A3 = (   0.0000000000,  -1.6633486268,   4.3600541800)
 
   3 primitive cells build up your supercell.
 

 Routine SETGRP: Setting up the symmetry group for a 
 hexagonal supercell.


 Subroutine GETGRP returns: Found 12 space group operations
 (whereof 12 operations were pure point group operations)
 out of a pool of 24 trial point group operations.


The dynamic configuration has the point symmetry D_3d.


 Subroutine INISYM returns: Found 12 space group operations
 (whereof 12 operations are pure point group operations),
 and found     3 'primitive' translations

 
 
 KPOINTS: KPOINTS created by Atomic Simulation Env

Automatic generation of k-mesh.
Space group operators:
 irot       det(A)        alpha          n_x          n_y          n_z        tau_x        tau_y        tau_z
    1     1.000000     0.000001     1.000000     0.000000     0.000000     0.000000     0.000000     0.000000
    2    -1.000000     0.000001     1.000000     0.000000     0.000000     0.000000     0.000000     0.000000
    3     1.000000   120.000000    -0.000000     0.000000    -1.000000     0.000000     0.000000     0.000000
    4    -1.000000   120.000000    -0.000000     0.000000    -1.000000     0.000000     0.000000     0.000000
    5     1.000000   120.000000    -0.000000     0.000000     1.000000     0.000000     0.000000     0.000000
    6    -1.000000   120.000000    -0.000000     0.000000     1.000000     0.000000     0.000000     0.000000
    7     1.000000   180.000000     1.000000    -0.000000     0.000000     0.000000     0.000000     0.000000
    8    -1.000000   180.000000     1.000000    -0.000000     0.000000     0.000000     0.000000     0.000000
    9     1.000000   180.000000    -0.500000     0.866025     0.000000     0.000000     0.000000     0.000000
   10    -1.000000   180.000000    -0.500000     0.866025     0.000000     0.000000     0.000000     0.000000
   11     1.000000   180.000000     0.500000     0.866025     0.000000     0.000000     0.000000     0.000000
   12    -1.000000   180.000000     0.500000     0.866025     0.000000     0.000000     0.000000     0.000000
 
 Subroutine IBZKPT returns following result:
 ===========================================
 
 Found     32 irreducible k-points:
 
 Following reciprocal coordinates:
            Coordinates               Weight
  0.000000  0.000000  0.000000      1.000000
  0.090909 -0.000000  0.000000      6.000000
  0.181818 -0.000000  0.000000      6.000000
  0.272727  0.000000  0.000000      6.000000
  0.363636 -0.000000  0.000000      6.000000
  0.454545  0.000000  0.000000      6.000000
  0.090909  0.090909  0.000000      6.000000
  0.181818  0.090909  0.000000     12.000000
  0.272727  0.090909  0.000000     12.000000
  0.363636  0.090909  0.000000     12.000000
  0.454545  0.090909  0.000000      6.000000
  0.181818  0.181818  0.000000      6.000000
  0.272727  0.181818  0.000000     12.000000
  0.363636  0.181818  0.000000     12.000000
  0.272727  0.272727  0.000000      6.000000
  0.363636  0.272727  0.000000      6.000000
  0.000000  0.000000  0.500000      1.000000
  0.090909  0.000000  0.500000      6.000000
  0.181818 -0.000000  0.500000      6.000000
  0.272727  0.000000  0.500000      6.000000
  0.363636 -0.000000  0.500000      6.000000
  0.454545  0.000000  0.500000      6.000000
  0.090909  0.090909  0.500000      6.000000
  0.181818  0.090909  0.500000     12.000000
  0.272727  0.090909  0.500000     12.000000
  0.363636  0.090909  0.500000     12.000000
  0.454545  0.090909  0.500000      6.000000
  0.181818  0.181818  0.500000      6.000000
  0.272727  0.181818  0.500000     12.000000
  0.363636  0.181818  0.500000     12.000000
  0.272727  0.272727  0.500000      6.000000
  0.363636  0.272727  0.500000      6.000000
 
 Following cartesian coordinates:
            Coordinates               Weight
  0.000000  0.000000  0.000000      1.000000
  0.031555  0.018218  0.000000      6.000000
  0.063109  0.036436  0.000000      6.000000
  0.094664  0.054654  0.000000      6.000000
  0.126219  0.072872  0.000000      6.000000
  0.157773  0.091090  0.000000      6.000000
  0.031555  0.054654  0.000000      6.000000
  0.063109  0.072872  0.000000     12.000000
  0.094664  0.091090  0.000000     12.000000
  0.126219  0.109309  0.000000     12.000000
  0.157773  0.127527  0.000000      6.000000
  0.063109  0.109309  0.000000      6.000000
  0.094664  0.127527  0.000000     12.000000
  0.126219  0.145745  0.000000     12.000000
  0.094664  0.163963  0.000000      6.000000
  0.126219  0.182181  0.000000      6.000000
  0.000000  0.000000  0.038226      1.000000
  0.031555  0.018218  0.038226      6.000000
  0.063109  0.036436  0.038226      6.000000
  0.094664  0.054654  0.038226      6.000000
  0.126219  0.072872  0.038226      6.000000
  0.157773  0.091090  0.038226      6.000000
  0.031555  0.054654  0.038226      6.000000
  0.063109  0.072872  0.038226     12.000000
  0.094664  0.091090  0.038226     12.000000
  0.126219  0.109309  0.038226     12.000000
  0.157773  0.127527  0.038226      6.000000
  0.063109  0.109309  0.038226      6.000000
  0.094664  0.127527  0.038226     12.000000
  0.126219  0.145745  0.038226     12.000000
  0.094664  0.163963  0.038226      6.000000
  0.126219  0.182181  0.038226      6.000000
 


--------------------------------------------------------------------------------------------------------




 Dimension of arrays:
   k-points           NKPTS =     32   k-points in BZ     NKDIM =     32   number of bands    NBANDS=     40
   number of dos      NEDOS =    301   number of ions     NIONS =     12
   non local maximal  LDIM  =      6   non local SUM 2l+1 LMDIM =     18
   total plane-waves  NPLWV =  12544
   max r-space proj   IRMAX =      1   max aug-charges    IRDMAX=   5461
   dimension x,y,z NGX =    14 NGY =   14 NGZ =   64
   dimension x,y,z NGXF=    28 NGYF=   28 NGZF=  128
   support grid    NGXF=    28 NGYF=   28 NGZF=  128
   ions per type =               3   6   3
   NGX,Y,Z   is equivalent  to a cutoff of   8.08,  8.08,  8.13 a.u.
   NGXF,Y,Z  is equivalent  to a cutoff of  16.16, 16.16, 16.27 a.u.

 SYSTEM =  unknown system                          
 POSCAR =  Co O  H                                 

 Startparameter for this run:
   NWRITE =      2    write-flag & timer
   PREC   = normal    normal or accurate (medium, high low for compatibility)
   ISTART =      0    job   : 0-new  1-cont  2-samecut
   ICHARG =      2    charge: 1-file 2-atom 10-const
   ISPIN  =      1    spin polarized calculation?
   LNONCOLLINEAR =      F non collinear calculations
   LSORBIT =      F    spin-orbit coupling
   INIWAV =      1    electr: 0-lowe 1-rand  2-diag
   LASPH  =      F    aspherical Exc in radial PAW
   METAGGA=      F    non-selfconsistent MetaGGA calc.

 Electronic Relaxation 1
   ENCUT  =  400.0 eV  29.40 Ry    5.42 a.u.   4.70  4.70 21.33*2*pi/ulx,y,z
   ENINI  =  400.0     initial cutoff
   ENAUG  =  605.4 eV  augmentation charge cutoff
   NELM   =     60;   NELMIN=  4; NELMDL= -5     # of ELM steps 
   EDIFF  = 0.1E-05   stopping-criterion for ELM
   LREAL  =      F    real-space projection
   NLSPLINE    = F    spline interpolate recip. space projectors
   LCOMPAT=      F    compatible to vasp.4.4
   GGA_COMPAT  = T    GGA compatible to vasp.4.4-vasp.4.6
   LMAXPAW     = -100 max onsite density
   LMAXMIX     =    2 max onsite mixed and CHGCAR
   VOSKOWN=      0    Vosko Wilk Nusair interpolation
   ROPT   =    0.00000   0.00000   0.00000
 Ionic relaxation
   EDIFFG = 0.1E-01   stopping-criterion for IOM
   NSW    =     20    number of steps for IOM
   NBLOCK =      1;   KBLOCK =     20    inner block; outer block 
   IBRION =      2    ionic relax: 0-MD 1-quasi-New 2-CG
   NFREE  =      1    steps in history (QN), initial steepest desc. (CG)
   ISIF   =      3    stress and relaxation
   IWAVPR =     11    prediction:  0-non 1-charg 2-wave 3-comb
   ISYM   =      2    0-nonsym 1-usesym 2-fastsym
   LCORR  =      T    Harris-Foulkes like correction to forces

   POTIM  = 0.5000    time-step for ionic-motion
   TEIN   =    0.0    initial temperature
   TEBEG  =    0.0;   TEEND  =   0.0 temperature during run
   SMASS  =  -3.00    Nose mass-parameter (am)
   estimated Nose-frequenzy (Omega)   =  0.10E-29 period in steps =****** mass=  -0.190E-27a.u.
   SCALEE = 1.0000    scale energy and forces
   NPACO  =    256;   APACO  = 16.0  distance and # of slots for P.C.
   PSTRESS=    0.0 pullay stress

  Mass of Ions in am
   POMASS =  58.93 16.00  1.00
  Ionic Valenz
   ZVAL   =   9.00  6.00  1.00
  Atomic Wigner-Seitz radii
   RWIGS  =  -1.00 -1.00 -1.00
  virtual crystal weights 
   VCA    =   1.00  1.00  1.00
   NELECT =      66.0000    total number of electrons
   NUPDOWN=      -1.0000    fix difference up-down

 DOS related values:
   EMIN   =  10.00;   EMAX   =-10.00  energy-range for DOS
   EFERMI =   0.00
   ISMEAR =     0;   SIGMA  =   0.10  broadening in eV -4-tet -1-fermi 0-gaus

 Electronic relaxation 2 (details)
   IALGO  =     38    algorithm
   LDIAG  =      T    sub-space diagonalisation (order eigenvalues)
   LSUBROT=      F    optimize rotation matrix (better conditioning)
   TURBO    =      0    0=normal 1=particle mesh
   IRESTART =      0    0=no restart 2=restart with 2 vectors
   NREBOOT  =      0    no. of reboots
   NMIN     =      0    reboot dimension
   EREF     =   0.00    reference energy to select bands
   IMIX   =      4    mixing-type and parameters
     AMIX     =   0.40;   BMIX     =  1.00
     AMIX_MAG =   1.60;   BMIX_MAG =  1.00
     AMIN     =   0.10
     WC   =   100.;   INIMIX=   1;  MIXPRE=   1;  MAXMIX= -45

 Intra band minimization:
   WEIMIN = 0.0010     energy-eigenvalue tresh-hold
   EBREAK =  0.62E-08  absolut break condition
   DEPER  =   0.30     relativ break condition  

   TIME   =   0.40     timestep for ELM

  volume/ion in A,a.u.               =       7.84        52.87
  Fermi-wavevector in a.u.,A,eV,Ry     =   1.454942  2.749441 28.801568  2.116856
  Thomas-Fermi vector in A             =   2.572034
 
 Write flags
   LWAVE        =      F    write WAVECAR
   LDOWNSAMPLE  =      F    k-point downsampling of WAVECAR
   LCHARG       =      F    write CHGCAR
   LVTOT        =      F    write LOCPOT, total local potential
   LVHAR        =      F    write LOCPOT, Hartree potential only
   LELF         =      F    write electronic localiz. function (ELF)
   LORBIT       =      0    0 simple, 1 ext, 2 COOP (PROOUT), +10 PAW based schemes


 Dipole corrections
   LMONO  =      F    monopole corrections only (constant potential shift)
   LDIPOL =      F    correct potential (dipole corrections)
   IDIPOL =      0    1-x, 2-y, 3-z, 4-all directions 
   EPSILON=  1.0000000 bulk dielectric constant

 Exchange correlation treatment:
   GGA     =    PE    GGA type
   LEXCH   =     8    internal setting for exchange type
   VOSKOWN=      0    Vosko Wilk Nusair interpolation
   LHFCALC =     F    Hartree Fock is set to
   LHFONE  =     F    Hartree Fock one center treatment
   AEXX    =    0.0000 exact exchange contribution

 Linear response parameters
   LEPSILON=     F    determine dielectric tensor
   LRPA    =     F    only Hartree local field effects (RPA)
   LNABLA  =     F    use nabla operator in PAW spheres
   LVEL    =     F    velocity operator in full k-point grid
   LINTERFAST=   F  fast interpolation
   KINTER  =     0    interpolate to denser k-point grid
   CSHIFT  =0.1000    complex shift for real part using Kramers Kronig
   OMEGAMAX=  -1.0    maximum frequency
   DEG_THRESHOLD= 0.2000000E-02 threshold for treating states as degnerate
   RTIME   =   -0.100 relaxation time in fs
  (WPLASMAI=    0.000 imaginary part of plasma frequency in eV, 0.658/RTIME)
   DFIELD  = 0.0000000 0.0000000 0.0000000 field for delta impulse in time
 
 Orbital magnetization related:
   ORBITALMAG=     F  switch on orbital magnetization
   LCHIMAG   =     F  perturbation theory with respect to B field
   DQ        =  0.001000  dq finite difference perturbation B field
   LLRAUG    =     F  two centre corrections for induced B field



--------------------------------------------------------------------------------------------------------


 conjugate gradient relaxation of ions
 charge density and potential will be updated during run
 non-spin polarized calculation
 Variant of blocked Davidson
 Davidson routine will perform the subspace rotation
 perform sub-space diagonalisation
    after iterative eigenvector-optimisation
 modified Broyden-mixing scheme, WC =      100.0
 initial mixing is a Kerker type mixing with AMIX =  0.4000 and BMIX =      1.0000
 Hartree-type preconditioning will be used
 using additional bands            7
 reciprocal scheme for non local part
 use partial core corrections
 calculate Harris-corrections to forces 
   (improved forces if not selfconsistent)
 use gradient corrections 
 use of overlap-Matrix (Vanderbilt PP)
 Gauss-broadening in eV      SIGMA  =   0.10


--------------------------------------------------------------------------------------------------------


  energy-cutoff  :      400.00
  volume of cell :       94.02
      direct lattice vectors                 reciprocal lattice vectors
     2.881004340 -0.000000000 -0.000000000     0.347101178  0.200398959  0.000000000
    -1.440502170  2.495022947 -0.000000000     0.000000000  0.400797917  0.000000000
    -0.000000000 -0.000000000 13.080162532     0.000000000  0.000000000  0.076451649

  length of vectors
     2.881004340  2.881004340 13.080162532     0.400797917  0.400797917  0.076451649


 
 k-points in units of 2pi/SCALE and weight: KPOINTS created by Atomic Simulation Env
   0.00000000  0.00000000  0.00000000       0.004
   0.03155465  0.01821809  0.00000000       0.025
   0.06310931  0.03643617  0.00000000       0.025
   0.09466396  0.05465426  0.00000000       0.025
   0.12621861  0.07287235  0.00000000       0.025
   0.15777326  0.09109044  0.00000000       0.025
   0.03155465  0.05465426  0.00000000       0.025
   0.06310931  0.07287235  0.00000000       0.050
   0.09466396  0.09109044  0.00000000       0.050
   0.12621861  0.10930852  0.00000000       0.050
   0.15777326  0.12752661  0.00000000       0.025
   0.06310931  0.10930852  0.00000000       0.025
   0.09466396  0.12752661  0.00000000       0.050
   0.12621861  0.14574470  0.00000000       0.050
   0.09466396  0.16396278  0.00000000       0.025
   0.12621861  0.18218087  0.00000000       0.025
   0.00000000  0.00000000  0.03822582       0.004
   0.03155465  0.01821809  0.03822582       0.025
   0.06310931  0.03643617  0.03822582       0.025
   0.09466396  0.05465426  0.03822582       0.025
   0.12621861  0.07287235  0.03822582       0.025
   0.15777326  0.09109044  0.03822582       0.025
   0.03155465  0.05465426  0.03822582       0.025
   0.06310931  0.07287235  0.03822582       0.050
   0.09466396  0.09109044  0.03822582       0.050
   0.12621861  0.10930852  0.03822582       0.050
   0.15777326  0.12752661  0.03822582       0.025
   0.06310931  0.10930852  0.03822582       0.025
   0.09466396  0.12752661  0.03822582       0.050
   0.12621861  0.14574470  0.03822582       0.050
   0.09466396  0.16396278  0.03822582       0.025
   0.12621861  0.18218087  0.03822582       0.025
 
 k-points in reciprocal lattice and weights: KPOINTS created by Atomic Simulation Env
   0.00000000  0.00000000  0.00000000       0.004
   0.09090909 -0.00000000  0.00000000       0.025
   0.18181818 -0.00000000  0.00000000       0.025
   0.27272727  0.00000000  0.00000000       0.025
   0.36363636 -0.00000000  0.00000000       0.025
   0.45454545  0.00000000  0.00000000       0.025
   0.09090909  0.09090909  0.00000000       0.025
   0.18181818  0.09090909  0.00000000       0.050
   0.27272727  0.09090909  0.00000000       0.050
   0.36363636  0.09090909  0.00000000       0.050
   0.45454545  0.09090909  0.00000000       0.025
   0.18181818  0.18181818  0.00000000       0.025
   0.27272727  0.18181818  0.00000000       0.050
   0.36363636  0.18181818  0.00000000       0.050
   0.27272727  0.27272727  0.00000000       0.025
   0.36363636  0.27272727  0.00000000       0.025
   0.00000000  0.00000000  0.50000000       0.004
   0.09090909  0.00000000  0.50000000       0.025
   0.18181818 -0.00000000  0.50000000       0.025
   0.27272727  0.00000000  0.50000000       0.025
   0.36363636 -0.00000000  0.50000000       0.025
   0.45454545  0.00000000  0.50000000       0.025
   0.09090909  0.09090909  0.50000000       0.025
   0.18181818  0.09090909  0.50000000       0.050
   0.27272727  0.09090909  0.50000000       0.050
   0.36363636  0.09090909  0.50000000       0.050
   0.45454545  0.09090909  0.50000000       0.025
   0.18181818  0.18181818  0.50000000       0.025
   0.27272727  0.18181818  0.50000000       0.050
   0.36363636  0.18181818  0.50000000       0.050
   0.27272727  0.27272727  0.50000000       0.025
   0.36363636  0.27272727  0.50000000       0.025
 
 position of ions in fractional coordinates (direct lattice) 
   0.00000000  0.00000000  0.00000000
   0.66666667  0.33333334  0.33333333
   0.33333333  0.66666667  0.66666667
   0.00000000  0.00000000  0.40791209
   0.66666667  0.33333334  0.74124542
   0.33333333  0.66666667  0.07457876
   0.00000000  0.00000000  0.59208791
   0.66666667  0.33333334  0.92542124
   0.33333333  0.66666667  0.25875458
   0.00000000  0.00000000  0.50000000
   0.66666667  0.33333334  0.83333333
   0.33333333  0.66666667  0.16666667
 
 position of ions in cartesian coordinates  (Angst):
   0.00000000  0.00000000  0.00000000
   1.44050217  0.83167432  4.36005418
  -0.00000000  1.66334863  8.72010835
  -0.00000000 -0.00000000  5.33555644
   1.44050217  0.83167432  9.69561061
  -0.00000000  1.66334863  0.97550226
  -0.00000000 -0.00000000  7.74460610
   1.44050217  0.83167432 12.10466027
  -0.00000000  1.66334863  3.38455192
  -0.00000000 -0.00000000  6.54008127
   1.44050217  0.83167432 10.90013544
  -0.00000000  1.66334863  2.18002709
 


--------------------------------------------------------------------------------------------------------


 k-point  1 :   0.0000 0.0000 0.0000  plane waves:    1723
 k-point  2 :   0.0909-0.0000 0.0000  plane waves:    1718
 k-point  3 :   0.1818-0.0000 0.0000  plane waves:    1708
 k-point  4 :   0.2727 0.0000 0.0000  plane waves:    1702
 k-point  5 :   0.3636-0.0000 0.0000  plane waves:    1714
 k-point  6 :   0.4545 0.0000 0.0000  plane waves:    1714
 k-point  7 :   0.0909 0.0909 0.0000  plane waves:    1709
 k-point  8 :   0.1818 0.0909 0.0000  plane waves:    1703
 k-point  9 :   0.2727 0.0909 0.0000  plane waves:    1706
 k-point 10 :   0.3636 0.0909 0.0000  plane waves:    1721
 k-point 11 :   0.4545 0.0909 0.0000  plane waves:    1700
 k-point 12 :   0.1818 0.1818 0.0000  plane waves:    1709
 k-point 13 :   0.2727 0.1818 0.0000  plane waves:    1705
 k-point 14 :   0.3636 0.1818 0.0000  plane waves:    1706
 k-point 15 :   0.2727 0.2727 0.0000  plane waves:    1695
 k-point 16 :   0.3636 0.2727 0.0000  plane waves:    1694
 k-point 17 :   0.0000 0.0000 0.5000  plane waves:    1722
 k-point 18 :   0.0909 0.0000 0.5000  plane waves:    1718
 k-point 19 :   0.1818-0.0000 0.5000  plane waves:    1704
 k-point 20 :   0.2727 0.0000 0.5000  plane waves:    1714
 k-point 21 :   0.3636-0.0000 0.5000  plane waves:    1706
 k-point 22 :   0.4545 0.0000 0.5000  plane waves:    1710
 k-point 23 :   0.0909 0.0909 0.5000  plane waves:    1712
 k-point 24 :   0.1818 0.0909 0.5000  plane waves:    1712
 k-point 25 :   0.2727 0.0909 0.5000  plane waves:    1708
 k-point 26 :   0.3636 0.0909 0.5000  plane waves:    1706
 k-point 27 :   0.4545 0.0909 0.5000  plane waves:    1706
 k-point 28 :   0.1818 0.1818 0.5000  plane waves:    1722
 k-point 29 :   0.2727 0.1818 0.5000  plane waves:    1716
 k-point 30 :   0.3636 0.1818 0.5000  plane waves:    1694
 k-point 31 :   0.2727 0.2727 0.5000  plane waves:    1700
 k-point 32 :   0.3636 0.2727 0.5000  plane waves:    1684

 maximum and minimum number of plane-waves per node :       436      414

 maximum number of plane-waves:      1723
 maximum index in each direction: 
   IXMAX=    4   IYMAX=    4   IZMAX=   21
   IXMIN=   -5   IYMIN=   -4   IZMIN=  -21


 parallel 3D FFT for wavefunctions:
    minimum data exchange during FFTs selected (reduces bandwidth)
 parallel 3D FFT for charge:
    minimum data exchange during FFTs selected (reduces bandwidth)


 total amount of memory used by VASP MPI-rank0    39523. kBytes
=======================================================================

   base      :      30000. kBytes
   nonl-proj :       6110. kBytes
   fftplans  :        343. kBytes
   grid      :        608. kBytes
   one-center:         46. kBytes
   wavefun   :       2416. kBytes
 
     INWAV:  cpu time    0.0000: real time    0.0000
 Broyden mixing: mesh for mixing (old mesh)
   NGX =  9   NGY =  9   NGZ = 43
  (NGX  = 28   NGY  = 28   NGZ  =128)
  gives a total of   3483 points

 initial charge density was supplied:
 charge density of overlapping atoms calculated
 number of electron      66.0000000 magnetization 
 keeping initial charge density in first step


--------------------------------------------------------------------------------------------------------


 Maximum index for augmentation-charges          430 (set IRDMAX)


--------------------------------------------------------------------------------------------------------


 First call to EWALD:  gamma=   0.390
 Maximum number of real-space cells 5x 5x 1
 Maximum number of reciprocal cells 2x 2x 7

    FEWALD:  cpu time    0.0020: real time    0.0020


--------------------------------------- Iteration      1(   1)  ---------------------------------------


    POTLOK:  cpu time    0.0187: real time    0.0193
    SETDIJ:  cpu time    0.0042: real time    0.0043
     EDDAV:  cpu time    1.0605: real time    1.0656
       DOS:  cpu time    0.0018: real time    0.0018
    --------------------------------------------
      LOOP:  cpu time    1.0853: real time    1.0910

 eigenvalue-minimisations  :  2560
 total energy-change (2. order) : 0.6805122E+03  (-0.2693749E+04)
 number of electron      66.0000000 magnetization 
 augmentation part       66.0000000 magnetization 

 Free energy of the ion-electron system (eV)
  ---------------------------------------------------
  alpha Z        PSCENC =       201.78208284
  Ewald energy   TEWEN  =     -3853.11753495
  -Hartree energ DENC   =     -1429.57252315
  -exchange      EXHF   =         0.00000000
  -V(xc)+E(xc)   XCENC  =       224.82832587
  PAW double counting   =      4248.73278253    -4418.64131349
  entropy T*S    EENTRO =        -0.01509155
  eigenvalues    EBANDS =       635.42717128
  atomic energy  EATOM  =      5071.08827651
  Solvation  Ediel_sol  =         0.00000000
  ---------------------------------------------------
  free energy    TOTEN  =       680.51217589 eV

  energy without entropy =      680.52726745  energy(sigma->0) =      680.51972167


--------------------------------------------------------------------------------------------------------




--------------------------------------- Iteration      1(   2)  ---------------------------------------


     EDDAV:  cpu time    1.1959: real time    1.2016
       DOS:  cpu time    0.0019: real time    0.0019
    --------------------------------------------
      LOOP:  cpu time    1.1978: real time    1.2035

 eigenvalue-minimisations  :  2904
 total energy-change (2. order) :-0.6727471E+03  (-0.6143323E+03)
 number of electron      66.0000000 magnetization 
 augmentation part       66.0000000 magnetization 

 Free energy of the ion-electron system (eV)
  ---------------------------------------------------
  alpha Z        PSCENC =       201.78208284
  Ewald energy   TEWEN  =     -3853.11753495
  -Hartree energ DENC   =     -1429.57252315
  -exchange      EXHF   =         0.00000000
  -V(xc)+E(xc)   XCENC  =       224.82832587
  PAW double counting   =      4248.73278253    -4418.64131349
  entropy T*S    EENTRO =        -0.02008073
  eigenvalues    EBANDS =       -37.31497216
  atomic energy  EATOM  =      5071.08827651
  Solvation  Ediel_sol  =         0.00000000
  ---------------------------------------------------
  free energy    TOTEN  =         7.76504328 eV

  energy without entropy =        7.78512401  energy(sigma->0) =        7.77508365


--------------------------------------------------------------------------------------------------------




--------------------------------------- Iteration      1(   3)  ---------------------------------------


     EDDAV:  cpu time    1.1919: real time    1.1978
       DOS:  cpu time    0.0017: real time    0.0017
    --------------------------------------------
      LOOP:  cpu time    1.1936: real time    1.1995

 eigenvalue-minimisations  :  2904
 total energy-change (2. order) :-0.9249071E+02  (-0.8979008E+02)
 number of electron      66.0000000 magnetization 
 augmentation part       66.0000000 magnetization 

 Free energy of the ion-electron system (eV)
  ---------------------------------------------------
  alpha Z        PSCENC =       201.78208284
  Ewald energy   TEWEN  =     -3853.11753495
  -Hartree energ DENC   =     -1429.57252315
  -exchange      EXHF   =         0.00000000
  -V(xc)+E(xc)   XCENC  =       224.82832587
  PAW double counting   =      4248.73278253    -4418.64131349
  entropy T*S    EENTRO =        -0.00619476
  eigenvalues    EBANDS =      -129.81956551
  atomic energy  EATOM  =      5071.08827651
  Solvation  Ediel_sol  =         0.00000000
  ---------------------------------------------------
  free energy    TOTEN  =       -84.72566411 eV

  energy without entropy =      -84.71946935  energy(sigma->0) =      -84.72256673


--------------------------------------------------------------------------------------------------------




--------------------------------------- Iteration      1(   4)  ---------------------------------------


     EDDAV:  cpu time    1.2642: real time    1.2704
       DOS:  cpu time    0.0011: real time    0.0011
    --------------------------------------------
      LOOP:  cpu time    1.2653: real time    1.2715

 eigenvalue-minimisations  :  3080
 total energy-change (2. order) :-0.3670783E+01  (-0.3573799E+01)
 number of electron      66.0000000 magnetization 
 augmentation part       66.0000000 magnetization 

 Free energy of the ion-electron system (eV)
  ---------------------------------------------------
  alpha Z        PSCENC =       201.78208284
  Ewald energy   TEWEN  =     -3853.11753495
  -Hartree energ DENC   =     -1429.57252315
  -exchange      EXHF   =         0.00000000
  -V(xc)+E(xc)   XCENC  =       224.82832587
  PAW double counting   =      4248.73278253    -4418.64131349
  entropy T*S    EENTRO =        -0.00000000
  eigenvalues    EBANDS =      -133.49654281
  atomic energy  EATOM  =      5071.08827651
  Solvation  Ediel_sol  =         0.00000000
  ---------------------------------------------------
  free energy    TOTEN  =       -88.39644665 eV

  energy without entropy =      -88.39644665  energy(sigma->0) =      -88.39644665


--------------------------------------------------------------------------------------------------------




--------------------------------------- Iteration      1(   5)  ---------------------------------------


     EDDAV:  cpu time    1.4429: real time    1.4499
       DOS:  cpu time    0.0012: real time    0.0012
    CHARGE:  cpu time    0.0509: real time    0.0511
    MIXING:  cpu time    0.0005: real time    0.0005
    --------------------------------------------
      LOOP:  cpu time    1.4954: real time    1.5026

 eigenvalue-minimisations  :  3600
 total energy-change (2. order) :-0.1716887E+00  (-0.1715517E+00)
 number of electron      65.9999982 magnetization 
 augmentation part       17.6588439 magnetization 

 Broyden mixing:
  rms(total) = 0.35980E+01    rms(broyden)= 0.35952E+01
  rms(prec ) = 0.40249E+01
  weight for this iteration     100.00

 Free energy of the ion-electron system (eV)
  ---------------------------------------------------
  alpha Z        PSCENC =       201.78208284
  Ewald energy   TEWEN  =     -3853.11753495
  -Hartree energ DENC   =     -1429.57252315
  -exchange      EXHF   =         0.00000000
  -V(xc)+E(xc)   XCENC  =       224.82832587
  PAW double counting   =      4248.73278253    -4418.64131349
  entropy T*S    EENTRO =        -0.00000000
  eigenvalues    EBANDS =      -133.66823149
  atomic energy  EATOM  =      5071.08827651
  Solvation  Ediel_sol  =         0.00000000
  ---------------------------------------------------
  free energy    TOTEN  =       -88.56813533 eV

  energy without entropy =      -88.56813533  energy(sigma->0) =      -88.56813533


--------------------------------------------------------------------------------------------------------




--------------------------------------- Iteration      1(   6)  ---------------------------------------


    POTLOK:  cpu time    0.0103: real time    0.0105
    SETDIJ:  cpu time    0.0040: real time    0.0040
     EDDAV:  cpu time    1.3857: real time    1.3923
       DOS:  cpu time    0.0020: real time    0.0021
    CHARGE:  cpu time    0.0520: real time    0.0522
    MIXING:  cpu time    0.0005: real time    0.0005
    --------------------------------------------
      LOOP:  cpu time    1.4545: real time    1.4616

 eigenvalue-minimisations  :  3456
 total energy-change (2. order) : 0.1725241E+00  (-0.1251347E+02)
 number of electron      65.9999975 magnetization 
 augmentation part       22.7234213 magnetization 

 Broyden mixing:
  rms(total) = 0.42592E+01    rms(broyden)= 0.42578E+01
  rms(prec ) = 0.48689E+01
  weight for this iteration     100.00

 eigenvalues of (default mixing * dielectric matrix)
  average eigenvalue GAMMA=   0.4257
  0.4257

 Free energy of the ion-electron system (eV)
  ---------------------------------------------------
  alpha Z        PSCENC =       201.78208284
  Ewald energy   TEWEN  =     -3853.11753495
  -Hartree energ DENC   =     -1424.81026213
  -exchange      EXHF   =         0.00000000
  -V(xc)+E(xc)   XCENC  =       227.59257352
  PAW double counting   =      4849.85268568    -4995.62687482
  entropy T*S    EENTRO =        -0.02325554
  eigenvalues    EBANDS =      -165.13330238
  atomic energy  EATOM  =      5071.08827651
  Solvation  Ediel_sol  =         0.00000000
  ---------------------------------------------------
  free energy    TOTEN  =       -88.39561126 eV

  energy without entropy =      -88.37235573  energy(sigma->0) =      -88.38398350


--------------------------------------------------------------------------------------------------------




--------------------------------------- Iteration      1(   7)  ---------------------------------------


    POTLOK:  cpu time    0.0110: real time    0.0112
    SETDIJ:  cpu time    0.0040: real time    0.0040
     EDDAV:  cpu time    1.2587: real time    1.2647
       DOS:  cpu time    0.0012: real time    0.0012
    CHARGE:  cpu time    0.0496: real time    0.0498
    MIXING:  cpu time    0.0005: real time    0.0005
    --------------------------------------------
      LOOP:  cpu time    1.3249: real time    1.3314

 eigenvalue-minimisations  :  3104
 total energy-change (2. order) : 0.1470144E+02  (-0.4206449E+01)
 number of electron      65.9999983 magnetization 
 augmentation part       18.4226978 magnetization 

 Broyden mixing:
  rms(total) = 0.12439E+01    rms(broyden)= 0.12420E+01
  rms(prec ) = 0.13388E+01
  weight for this iteration     100.00

 eigenvalues of (default mixing * dielectric matrix)
  average eigenvalue GAMMA=   1.0083
  0.3772  1.6395

 Free energy of the ion-electron system (eV)
  ---------------------------------------------------
  alpha Z        PSCENC =       201.78208284
  Ewald energy   TEWEN  =     -3853.11753495
  -Hartree energ DENC   =     -1454.68100896
  -exchange      EXHF   =         0.00000000
  -V(xc)+E(xc)   XCENC  =       227.53332914
  PAW double counting   =      5091.27591800    -5261.21014213
  entropy T*S    EENTRO =        -0.00000000
  eigenvalues    EBANDS =       -96.36509517
  atomic energy  EATOM  =      5071.08827651
  Solvation  Ediel_sol  =         0.00000000
  ---------------------------------------------------
  free energy    TOTEN  =       -73.69417472 eV

  energy without entropy =      -73.69417472  energy(sigma->0) =      -73.69417472


--------------------------------------------------------------------------------------------------------




--------------------------------------- Iteration      1(   8)  ---------------------------------------


    POTLOK:  cpu time    0.0101: real time    0.0104
    SETDIJ:  cpu time    0.0039: real time    0.0040
     EDDAV:  cpu time    1.4222: real time    1.4290
       DOS:  cpu time    0.0014: real time    0.0014
    CHARGE:  cpu time    0.0498: real time    0.0500
    MIXING:  cpu time    0.0006: real time    0.0006
    --------------------------------------------
      LOOP:  cpu time    1.4880: real time    1.4953

 eigenvalue-minimisations  :  3576
 total energy-change (2. order) : 0.3007911E+00  (-0.1041771E+01)
 number of electron      65.9999980 magnetization 
 augmentation part       19.3221474 magnetization 

 Broyden mixing:
  rms(total) = 0.26172E+00    rms(broyden)= 0.26157E+00
  rms(prec ) = 0.28511E+00
  weight for this iteration     100.00

 eigenvalues of (default mixing * dielectric matrix)
  average eigenvalue GAMMA=   1.0512
  1.9298  0.8474  0.3763

 Free energy of the ion-electron system (eV)
  ---------------------------------------------------
  alpha Z        PSCENC =       201.78208284
  Ewald energy   TEWEN  =     -3853.11753495
  -Hartree energ DENC   =     -1437.26617703
  -exchange      EXHF   =         0.00000000
  -V(xc)+E(xc)   XCENC  =       226.93504088
  PAW double counting   =      5627.16030481    -5796.67141920
  entropy T*S    EENTRO =        -0.00000033
  eigenvalues    EBANDS =      -113.30395717
  atomic energy  EATOM  =      5071.08827651
  Solvation  Ediel_sol  =         0.00000000
  ---------------------------------------------------
  free energy    TOTEN  =       -73.39338365 eV

  energy without entropy =      -73.39338332  energy(sigma->0) =      -73.39338348


--------------------------------------------------------------------------------------------------------




--------------------------------------- Iteration      1(   9)  ---------------------------------------


    POTLOK:  cpu time    0.0102: real time    0.0104
    SETDIJ:  cpu time    0.0040: real time    0.0040
     EDDAV:  cpu time    1.1906: real time    1.1985
       DOS:  cpu time    0.0014: real time    0.0014
    CHARGE:  cpu time    0.0504: real time    0.0506
    MIXING:  cpu time    0.0006: real time    0.0006
    --------------------------------------------
      LOOP:  cpu time    1.2571: real time    1.2655

 eigenvalue-minimisations  :  2896
 total energy-change (2. order) : 0.2228291E-01  (-0.7800665E-01)
 number of electron      65.9999980 magnetization 
 augmentation part       19.2694903 magnetization 

 Broyden mixing:
  rms(total) = 0.10292E+00    rms(broyden)= 0.10287E+00
  rms(prec ) = 0.11162E+00
  weight for this iteration     100.00

 eigenvalues of (default mixing * dielectric matrix)
  average eigenvalue GAMMA=   1.2572
  0.3767  0.8457  1.3188  2.4876

 Free energy of the ion-electron system (eV)
  ---------------------------------------------------
  alpha Z        PSCENC =       201.78208284
  Ewald energy   TEWEN  =     -3853.11753495
  -Hartree energ DENC   =     -1446.74452115
  -exchange      EXHF   =         0.00000000
  -V(xc)+E(xc)   XCENC  =       227.52921910
  PAW double counting   =      5802.62887428    -5974.09952596
  entropy T*S    EENTRO =        -0.00000005
  eigenvalues    EBANDS =      -102.43797135
  atomic energy  EATOM  =      5071.08827651
  Solvation  Ediel_sol  =         0.00000000
  ---------------------------------------------------
  free energy    TOTEN  =       -73.37110073 eV

  energy without entropy =      -73.37110068  energy(sigma->0) =      -73.37110071


--------------------------------------------------------------------------------------------------------




--------------------------------------- Iteration      1(  10)  ---------------------------------------


    POTLOK:  cpu time    0.0102: real time    0.0104
    SETDIJ:  cpu time    0.0040: real time    0.0040
     EDDAV:  cpu time    1.4918: real time    1.5000
       DOS:  cpu time    0.0014: real time    0.0014
    CHARGE:  cpu time    0.0501: real time    0.0503
    MIXING:  cpu time    0.0007: real time    0.0007
    --------------------------------------------
      LOOP:  cpu time    1.5582: real time    1.5668

 eigenvalue-minimisations  :  3704
 total energy-change (2. order) :-0.1924262E-02  (-0.7289315E-02)
 number of electron      65.9999980 magnetization 
 augmentation part       19.2074704 magnetization 

 Broyden mixing:
  rms(total) = 0.33497E-01    rms(broyden)= 0.33463E-01
  rms(prec ) = 0.35493E-01
  weight for this iteration     100.00

 eigenvalues of (default mixing * dielectric matrix)
  average eigenvalue GAMMA=   1.2658
  2.4157  0.3767  1.6710  0.9327  0.9327

 Free energy of the ion-electron system (eV)
  ---------------------------------------------------
  alpha Z        PSCENC =       201.78208284
  Ewald energy   TEWEN  =     -3853.11753495
  -Hartree energ DENC   =     -1452.32131277
  -exchange      EXHF   =         0.00000000
  -V(xc)+E(xc)   XCENC  =       227.84547715
  PAW double counting   =      5932.26265434    -6105.12947394
  entropy T*S    EENTRO =        -0.00000004
  eigenvalues    EBANDS =       -95.78319414
  atomic energy  EATOM  =      5071.08827651
  Solvation  Ediel_sol  =         0.00000000
  ---------------------------------------------------
  free energy    TOTEN  =       -73.37302499 eV

  energy without entropy =      -73.37302496  energy(sigma->0) =      -73.37302498


--------------------------------------------------------------------------------------------------------




--------------------------------------- Iteration      1(  11)  ---------------------------------------


    POTLOK:  cpu time    0.0104: real time    0.0106
    SETDIJ:  cpu time    0.0042: real time    0.0042
     EDDAV:  cpu time    1.3083: real time    1.3146
       DOS:  cpu time    0.0014: real time    0.0014
    CHARGE:  cpu time    0.0501: real time    0.0503
    MIXING:  cpu time    0.0007: real time    0.0007
    --------------------------------------------
      LOOP:  cpu time    1.3751: real time    1.3818

 eigenvalue-minimisations  :  3208
 total energy-change (2. order) : 0.4114128E-05  (-0.3881078E-03)
 number of electron      65.9999980 magnetization 
 augmentation part       19.2096413 magnetization 

 Broyden mixing:
  rms(total) = 0.10161E-01    rms(broyden)= 0.10130E-01
  rms(prec ) = 0.11306E-01
  weight for this iteration     100.00

 eigenvalues of (default mixing * dielectric matrix)
  average eigenvalue GAMMA=   1.3895
  2.6857  2.1137  0.3767  1.3359  0.9127  0.9127

 Free energy of the ion-electron system (eV)
  ---------------------------------------------------
  alpha Z        PSCENC =       201.78208284
  Ewald energy   TEWEN  =     -3853.11753495
  -Hartree energ DENC   =     -1452.03725301
  -exchange      EXHF   =         0.00000000
  -V(xc)+E(xc)   XCENC  =       227.81090486
  PAW double counting   =      5925.06389307    -6097.60443201
  entropy T*S    EENTRO =        -0.00000004
  eigenvalues    EBANDS =       -96.35895814
  atomic energy  EATOM  =      5071.08827651
  Solvation  Ediel_sol  =         0.00000000
  ---------------------------------------------------
  free energy    TOTEN  =       -73.37302088 eV

  energy without entropy =      -73.37302084  energy(sigma->0) =      -73.37302086


--------------------------------------------------------------------------------------------------------




--------------------------------------- Iteration      1(  12)  ---------------------------------------


    POTLOK:  cpu time    0.0102: real time    0.0105
    SETDIJ:  cpu time    0.0040: real time    0.0040
     EDDAV:  cpu time    1.3858: real time    1.3924
       DOS:  cpu time    0.0014: real time    0.0014
    CHARGE:  cpu time    0.0498: real time    0.0500
    MIXING:  cpu time    0.0007: real time    0.0007
    --------------------------------------------
      LOOP:  cpu time    1.4520: real time    1.4591

 eigenvalue-minimisations  :  3424
 total energy-change (2. order) :-0.3056911E-03  (-0.1527390E-03)
 number of electron      65.9999980 magnetization 
 augmentation part       19.2233039 magnetization 

 Broyden mixing:
  rms(total) = 0.59507E-02    rms(broyden)= 0.59068E-02
  rms(prec ) = 0.69091E-02
  weight for this iteration     100.00

 eigenvalues of (default mixing * dielectric matrix)
  average eigenvalue GAMMA=   1.3379
  2.4685  2.3408  0.3767  1.1736  1.1736  0.9160  0.9160

 Free energy of the ion-electron system (eV)
  ---------------------------------------------------
  alpha Z        PSCENC =       201.78208284
  Ewald energy   TEWEN  =     -3853.11753495
  -Hartree energ DENC   =     -1452.08350025
  -exchange      EXHF   =         0.00000000
  -V(xc)+E(xc)   XCENC  =       227.80983864
  PAW double counting   =      5928.47593856    -6100.78643640
  entropy T*S    EENTRO =        -0.00000004
  eigenvalues    EBANDS =       -96.54199148
  atomic energy  EATOM  =      5071.08827651
  Solvation  Ediel_sol  =         0.00000000
  ---------------------------------------------------
  free energy    TOTEN  =       -73.37332657 eV

  energy without entropy =      -73.37332653  energy(sigma->0) =      -73.37332655


--------------------------------------------------------------------------------------------------------




--------------------------------------- Iteration      1(  13)  ---------------------------------------


    POTLOK:  cpu time    0.0102: real time    0.0105
    SETDIJ:  cpu time    0.0040: real time    0.0040
     EDDAV:  cpu time    1.5379: real time    1.5451
       DOS:  cpu time    0.0014: real time    0.0014
    CHARGE:  cpu time    0.0497: real time    0.0499
    MIXING:  cpu time    0.0008: real time    0.0008
    --------------------------------------------
      LOOP:  cpu time    1.6041: real time    1.6118

 eigenvalue-minimisations  :  3832
 total energy-change (2. order) : 0.2825942E-04  (-0.1737584E-04)
 number of electron      65.9999980 magnetization 
 augmentation part       19.2166935 magnetization 

 Broyden mixing:
  rms(total) = 0.21412E-02    rms(broyden)= 0.20179E-02
  rms(prec ) = 0.23488E-02
  weight for this iteration     100.00

 eigenvalues of (default mixing * dielectric matrix)
  average eigenvalue GAMMA=   1.4812
  2.9269  2.2216  2.2216  0.3767  0.8837  0.8837  1.1677  1.1677

 Free energy of the ion-electron system (eV)
  ---------------------------------------------------
  alpha Z        PSCENC =       201.78208284
  Ewald energy   TEWEN  =     -3853.11753495
  -Hartree energ DENC   =     -1452.23107468
  -exchange      EXHF   =         0.00000000
  -V(xc)+E(xc)   XCENC  =       227.81535154
  PAW double counting   =      5926.12656012    -6098.47691900
  entropy T*S    EENTRO =        -0.00000004
  eigenvalues    EBANDS =       -96.36004064
  atomic energy  EATOM  =      5071.08827651
  Solvation  Ediel_sol  =         0.00000000
  ---------------------------------------------------
  free energy    TOTEN  =       -73.37329831 eV

  energy without entropy =      -73.37329827  energy(sigma->0) =      -73.37329829


--------------------------------------------------------------------------------------------------------




--------------------------------------- Iteration      1(  14)  ---------------------------------------


    POTLOK:  cpu time    0.0104: real time    0.0106
    SETDIJ:  cpu time    0.0040: real time    0.0040
     EDDAV:  cpu time    1.4565: real time    1.4634
       DOS:  cpu time    0.0014: real time    0.0014
    CHARGE:  cpu time    0.0507: real time    0.0509
    MIXING:  cpu time    0.0009: real time    0.0009
    --------------------------------------------
      LOOP:  cpu time    1.5238: real time    1.5311

 eigenvalue-minimisations  :  3624
 total energy-change (2. order) :-0.1542878E-04  (-0.4861585E-05)
 number of electron      65.9999980 magnetization 
 augmentation part       19.2189214 magnetization 

 Broyden mixing:
  rms(total) = 0.17544E-02    rms(broyden)= 0.16054E-02
  rms(prec ) = 0.18730E-02
  weight for this iteration     100.00

 eigenvalues of (default mixing * dielectric matrix)
  average eigenvalue GAMMA=   1.4352
  2.9729  2.4707  1.9445  0.3767  1.2212  1.2212  1.0083  0.8506  0.8506

 Free energy of the ion-electron system (eV)
  ---------------------------------------------------
  alpha Z        PSCENC =       201.78208284
  Ewald energy   TEWEN  =     -3853.11753495
  -Hartree energ DENC   =     -1452.33312140
  -exchange      EXHF   =         0.00000000
  -V(xc)+E(xc)   XCENC  =       227.82292969
  PAW double counting   =      5926.62045201    -6098.96711596
  entropy T*S    EENTRO =        -0.00000004
  eigenvalues    EBANDS =       -96.26928243
  atomic energy  EATOM  =      5071.08827651
  Solvation  Ediel_sol  =         0.00000000
  ---------------------------------------------------
  free energy    TOTEN  =       -73.37331374 eV

  energy without entropy =      -73.37331370  energy(sigma->0) =      -73.37331372


--------------------------------------------------------------------------------------------------------




--------------------------------------- Iteration      1(  15)  ---------------------------------------


    POTLOK:  cpu time    0.0103: real time    0.0106
    SETDIJ:  cpu time    0.0040: real time    0.0040
     EDDAV:  cpu time    1.3583: real time    1.3647
       DOS:  cpu time    0.0014: real time    0.0015
    CHARGE:  cpu time    0.0489: real time    0.0491
    MIXING:  cpu time    0.0009: real time    0.0009
    --------------------------------------------
      LOOP:  cpu time    1.4239: real time    1.4308

 eigenvalue-minimisations  :  3296
 total energy-change (2. order) : 0.2338796E-05  (-0.9135921E-06)
 number of electron      65.9999980 magnetization 
 augmentation part       19.2175603 magnetization 

 Broyden mixing:
  rms(total) = 0.75488E-03    rms(broyden)= 0.26560E-03
  rms(prec ) = 0.29901E-03
  weight for this iteration     100.00
  WARNING: grid for Broyden might be to small

 eigenvalues of (default mixing * dielectric matrix)
  average eigenvalue GAMMA=   1.4487
  2.9219  2.4731  2.0650  0.3767  1.5600  1.2571  1.0547  1.0547  0.8619  0.8619

 Free energy of the ion-electron system (eV)
  ---------------------------------------------------
  alpha Z        PSCENC =       201.78208284
  Ewald energy   TEWEN  =     -3853.11753495
  -Hartree energ DENC   =     -1452.34784508
  -exchange      EXHF   =         0.00000000
  -V(xc)+E(xc)   XCENC  =       227.82296124
  PAW double counting   =      5926.37074792    -6098.72164885
  entropy T*S    EENTRO =        -0.00000004
  eigenvalues    EBANDS =       -96.25035098
  atomic energy  EATOM  =      5071.08827651
  Solvation  Ediel_sol  =         0.00000000
  ---------------------------------------------------
  free energy    TOTEN  =       -73.37331140 eV

  energy without entropy =      -73.37331136  energy(sigma->0) =      -73.37331138


--------------------------------------------------------------------------------------------------------




--------------------------------------- Iteration      1(  16)  ---------------------------------------


    POTLOK:  cpu time    0.0103: real time    0.0105
    SETDIJ:  cpu time    0.0040: real time    0.0040
     EDDAV:  cpu time    1.0034: real time    1.0083
       DOS:  cpu time    0.0013: real time    0.0013
    --------------------------------------------
      LOOP:  cpu time    1.0190: real time    1.0241

 eigenvalue-minimisations  :  2200
 total energy-change (2. order) :-0.6998562E-07  (-0.1998301E-06)
 number of electron      65.9999980 magnetization 
 augmentation part       19.2175603 magnetization 

 Free energy of the ion-electron system (eV)
  ---------------------------------------------------
  alpha Z        PSCENC =       201.78208284
  Ewald energy   TEWEN  =     -3853.11753495
  -Hartree energ DENC   =     -1452.33325220
  -exchange      EXHF   =         0.00000000
  -V(xc)+E(xc)   XCENC  =       227.82204933
  PAW double counting   =      5926.39025657    -6098.74156327
  entropy T*S    EENTRO =        -0.00000004
  eigenvalues    EBANDS =       -96.26362626
  atomic energy  EATOM  =      5071.08827651
  Solvation  Ediel_sol  =         0.00000000
  ---------------------------------------------------
  free energy    TOTEN  =       -73.37331147 eV

  energy without entropy =      -73.37331143  energy(sigma->0) =      -73.37331145


--------------------------------------------------------------------------------------------------------




 average (electrostatic) potential at core
  the test charge radii are     1.0452  0.7215  0.5201
  (the norm of the test charge is              1.0000)
       1 -83.6112       2 -83.6108       3 -83.6108       4 -71.0832       5 -71.0833
       6 -71.0834       7 -71.0832       8 -71.0834       9 -71.0833      10 -32.7359
      11 -32.7363      12 -32.7363
 
 
 
 E-fermi :   5.4534     XC(G=0): -11.3324     alpha+bet :-11.7969


 k-point     1 :       0.0000    0.0000    0.0000
  band No.  band energies     occupation 
      1     -15.8550      2.00000
      2     -15.3555      2.00000
      3     -15.3555      2.00000
      4     -14.0690      2.00000
      5     -14.0690      2.00000
      6     -13.2066      2.00000
      7      -4.6306      2.00000
      8      -2.9877      2.00000
      9      -2.9877      2.00000
     10      -0.3609      2.00000
     11      -0.3607      2.00000
     12      -0.3602      2.00000
     13      -0.3600      2.00000
     14      -0.2496      2.00000
     15      -0.2489      2.00000
     16       0.5385      2.00000
     17       0.5385      2.00000
     18       2.5772      2.00000
     19       2.5786      2.00000
     20       2.8336      2.00000
     21       2.8338      2.00000
     22       2.8351      2.00000
     23       2.8353      2.00000
     24       2.9143      2.00000
     25       3.9030      2.00000
     26       3.9030      2.00000
     27       3.9070      2.00000
     28       3.9070      2.00000
     29       3.9072      2.00000
     30       3.9072      2.00000
     31       4.2930      2.00000
     32       4.9266      2.00000
     33       4.9268      2.00000
     34       6.9287      0.00000
     35       6.9289      0.00000
     36       6.9296      0.00000
     37       6.9297      0.00000
     38       7.1091      0.00000
     39       7.1101      0.00000
     40      10.3303      0.00000

 k-point     2 :       0.0909   -0.0000    0.0000
  band No.  band energies     occupation 
      1     -15.7748      2.00000
      2     -15.2839      2.00000
      3     -15.2811      2.00000
      4     -14.0395      2.00000
      5     -14.0376      2.00000
      6     -13.2059      2.00000
      7      -4.5363      2.00000
      8      -3.0018      2.00000
      9      -2.9929      2.00000
     10      -0.5126      2.00000
     11      -0.5008      2.00000
     12      -0.3398      2.00000
     13      -0.3218      2.00000
     14      -0.3036      2.00000
     15      -0.1986      2.00000
     16       0.7655      2.00000
     17       0.7800      2.00000
     18       2.0217      2.00000
     19       2.3002      2.00000
     20       2.3322      2.00000
     21       2.3347      2.00000
     22       2.5487      2.00000
     23       2.5889      2.00000
     24       2.9805      2.00000
     25       4.0238      2.00000
     26       4.0381      2.00000
     27       4.0460      2.00000
     28       4.1059      2.00000
     29       4.1188      2.00000
     30       4.1481      2.00000
     31       4.3600      2.00000
     32       4.9701      2.00000
     33       4.9857      2.00000
     34       6.6448      0.00000
     35       6.7442      0.00000
     36       6.8436      0.00000
     37       6.9131      0.00000
     38       6.9293      0.00000
     39       7.0484      0.00000
     40      10.7124      0.00000

 k-point     3 :       0.1818   -0.0000    0.0000
  band No.  band energies     occupation 
      1     -15.5498      2.00000
      2     -15.0934      2.00000
      3     -15.0778      2.00000
      4     -13.9628      2.00000
      5     -13.9417      2.00000
      6     -13.2068      2.00000
      7      -4.2755      2.00000
      8      -3.0598      2.00000
      9      -3.0009      2.00000
     10      -0.6906      2.00000
     11      -0.6574      2.00000
     12      -0.5250      2.00000
     13      -0.2066      2.00000
     14      -0.1585      2.00000
     15      -0.0616      2.00000
     16       0.9319      2.00000
     17       1.0207      2.00000
     18       1.0970      2.00000
     19       1.3759      2.00000
     20       1.4209      2.00000
     21       1.9050      2.00000
     22       2.0724      2.00000
     23       2.1628      2.00000
     24       3.0308      2.00000
     25       4.0488      2.00000
     26       4.1073      2.00000
     27       4.1396      2.00000
     28       4.4226      2.00000
     29       4.4254      2.00000
     30       4.4810      2.00000
     31       4.5383      2.00000
     32       4.9650      2.00000
     33       5.0652      2.00000
     34       6.1132      0.00000
     35       6.4237      0.00000
     36       6.5616      0.00000
     37       6.7129      0.00000
     38       6.8576      0.00000
     39       6.9194      0.00000
     40      11.6545      0.00000

 k-point     4 :       0.2727    0.0000    0.0000
  band No.  band energies     occupation 
      1     -15.2289      2.00000
      2     -14.8547      2.00000
      3     -14.8087      2.00000
      4     -13.8479      2.00000
      5     -13.7891      2.00000
      6     -13.2189      2.00000
      7      -3.9087      2.00000
      8      -3.1456      2.00000
      9      -2.9991      2.00000
     10      -0.9672      2.00000
     11      -0.7177      2.00000
     12      -0.6947      2.00000
     13      -0.0997      2.00000
     14      -0.0685      2.00000
     15       0.0315      2.00000
     16       0.0945      2.00000
     17       0.3083      2.00000
     18       0.6150      2.00000
     19       1.1167      2.00000
     20       1.4777      2.00000
     21       1.5562      2.00000
     22       1.6453      2.00000
     23       1.8184      2.00000
     24       2.7994      2.00000
     25       3.9915      2.00000
     26       4.0407      2.00000
     27       4.1606      2.00000
     28       4.5579      2.00000
     29       4.5815      2.00000
     30       4.6161      2.00000
     31       4.6879      2.00000
     32       4.8113      2.00000
     33       5.0217      2.00000
     34       5.7899      0.00000
     35       6.3403      0.00000
     36       6.3454      0.00000
     37       6.6566      0.00000
     38       6.8234      0.00000
     39       6.8594      0.00000
     40      12.7724      0.00000

 k-point     5 :       0.3636   -0.0000    0.0000
  band No.  band energies     occupation 
      1     -14.8930      2.00000
      2     -14.6530      2.00000
      3     -14.5864      2.00000
      4     -13.6940      2.00000
      5     -13.6096      2.00000
      6     -13.2610      2.00000
      7      -3.5358      2.00000
      8      -3.2140      2.00000
      9      -2.9973      2.00000
     10      -1.4875      2.00000
     11      -1.2542      2.00000
     12      -0.8035      2.00000
     13      -0.4109      2.00000
     14      -0.3852      2.00000
     15       0.0338      2.00000
     16       0.1701      2.00000
     17       0.2026      2.00000
     18       0.5996      2.00000
     19       0.8154      2.00000
     20       1.3540      2.00000
     21       1.4144      2.00000
     22       1.6236      2.00000
     23       1.6388      2.00000
     24       2.2624      2.00000
     25       3.9016      2.00000
     26       3.9341      2.00000
     27       4.1247      2.00000
     28       4.5203      2.00000
     29       4.5464      2.00000
     30       4.5466      2.00000
     31       4.6707      2.00000
     32       4.7555      2.00000
     33       4.8440      2.00000
     34       5.8342      0.00000
     35       6.3772      0.00000
     36       6.4430      0.00000
     37       6.7134      0.00000
     38       6.8112      0.00000
     39       6.9339      0.00000
     40      13.5941      0.00000

 k-point     6 :       0.4545    0.0000    0.0000
  band No.  band energies     occupation 
      1     -14.6324      2.00000
      2     -14.5440      2.00000
      3     -14.5176      2.00000
      4     -13.5094      2.00000
      5     -13.4797      2.00000
      6     -13.3546      2.00000
      7      -3.2517      2.00000
      8      -3.2502      2.00000
      9      -3.0690      2.00000
     10      -1.8136      2.00000
     11      -1.7270      2.00000
     12      -0.9632      2.00000
     13      -0.7651      2.00000
     14      -0.1556      2.00000
     15       0.0941      2.00000
     16       0.1447      2.00000
     17       0.2694      2.00000
     18       0.2937      2.00000
     19       1.0700      2.00000
     20       1.2255      2.00000
     21       1.4535      2.00000
     22       1.5338      2.00000
     23       1.6299      2.00000
     24       1.7871      2.00000
     25       3.7852      2.00000
     26       3.9357      2.00000
     27       4.0203      2.00000
     28       4.4453      2.00000
     29       4.4471      2.00000
     30       4.4514      2.00000
     31       4.6686      2.00000
     32       4.6816      2.00000
     33       4.7308      2.00000
     34       5.9771      0.00000
     35       6.4925      0.00000
     36       6.5302      0.00000
     37       6.7945      0.00000
     38       6.8238      0.00000
     39       7.0016      0.00000
     40      13.9958      0.00000

 k-point     7 :       0.0909    0.0909    0.0000
  band No.  band energies     occupation 
      1     -15.6215      2.00000
      2     -15.1473      2.00000
      3     -15.1473      2.00000
      4     -13.9807      2.00000
      5     -13.9806      2.00000
      6     -13.2060      2.00000
      7      -4.3589      2.00000
      8      -3.0191      2.00000
      9      -3.0190      2.00000
     10      -0.6314      2.00000
     11      -0.6313      2.00000
     12      -0.4665      2.00000
     13      -0.2344      2.00000
     14      -0.2342      2.00000
     15      -0.1184      2.00000
     16       1.0256      2.00000
     17       1.0256      2.00000
     18       1.3163      2.00000
     19       1.6913      2.00000
     20       1.6915      2.00000
     21       1.9158      2.00000
     22       2.1412      2.00000
     23       2.1413      2.00000
     24       3.0528      2.00000
     25       4.0907      2.00000
     26       4.2110      2.00000
     27       4.2112      2.00000
     28       4.3140      2.00000
     29       4.3142      2.00000
     30       4.3286      2.00000
     31       4.4936      2.00000
     32       5.0173      2.00000
     33       5.0175      2.00000
     34       6.3794      0.00000
     35       6.3796      0.00000
     36       6.7039      0.00000
     37       6.7925      0.00000
     38       6.7927      0.00000
     39       6.8981      0.00000
     40      11.3763      0.00000

 k-point     8 :       0.1818    0.0909    0.0000
  band No.  band energies     occupation 
      1     -15.3485      2.00000
      2     -14.9306      2.00000
      3     -14.9127      2.00000
      4     -13.8822      2.00000
      5     -13.8581      2.00000
      6     -13.2113      2.00000
      7      -4.0437      2.00000
      8      -3.0851      2.00000
      9      -3.0234      2.00000
     10      -0.7739      2.00000
     11      -0.6963      2.00000
     12      -0.6104      2.00000
     13      -0.1460      2.00000
     14      -0.0956      2.00000
     15      -0.0767      2.00000
     16       0.4305      2.00000
     17       0.7680      2.00000
     18       0.8422      2.00000
     19       1.2297      2.00000
     20       1.3793      2.00000
     21       1.4581      2.00000
     22       1.6302      2.00000
     23       1.7230      2.00000
     24       2.9561      2.00000
     25       4.0634      2.00000
     26       4.2081      2.00000
     27       4.2621      2.00000
     28       4.5164      2.00000
     29       4.5429      2.00000
     30       4.5814      2.00000
     31       4.6358      2.00000
     32       4.9156      2.00000
     33       5.0165      2.00000
     34       5.9796      0.00000
     35       6.2644      0.00000
     36       6.4576      0.00000
     37       6.6237      0.00000
     38       6.7231      0.00000
     39       6.7516      0.00000
     40      12.4106      0.00000

 k-point     9 :       0.2727    0.0909    0.0000
  band No.  band energies     occupation 
      1     -15.0208      2.00000
      2     -14.7133      2.00000
      3     -14.6658      2.00000
      4     -13.7468      2.00000
      5     -13.6873      2.00000
      6     -13.2339      2.00000
      7      -3.6702      2.00000
      8      -3.1508      2.00000
      9      -3.0031      2.00000
     10      -1.1653      2.00000
     11      -0.8892      2.00000
     12      -0.7778      2.00000
     13      -0.4550      2.00000
     14      -0.0921      2.00000
     15      -0.0777      2.00000
     16       0.1445      2.00000
     17       0.2228      2.00000
     18       0.5753      2.00000
     19       1.0373      2.00000
     20       1.1976      2.00000
     21       1.2496      2.00000
     22       1.4752      2.00000
     23       1.5447      2.00000
     24       2.5544      2.00000
     25       4.0112      2.00000
     26       4.0925      2.00000
     27       4.2662      2.00000
     28       4.5569      2.00000
     29       4.5880      2.00000
     30       4.6085      2.00000
     31       4.7063      2.00000
     32       4.7581      2.00000
     33       4.8983      2.00000
     34       5.8557      0.00000
     35       6.3502      0.00000
     36       6.3623      0.00000
     37       6.5784      0.00000
     38       6.6898      0.00000
     39       6.7988      0.00000
     40      13.4863      0.00000

 k-point    10 :       0.3636    0.0909    0.0000
  band No.  band energies     occupation 
      1     -14.7248      2.00000
      2     -14.5650      2.00000
      3     -14.5189      2.00000
      4     -13.5779      2.00000
      5     -13.5221      2.00000
      6     -13.2944      2.00000
      7      -3.3415      2.00000
      8      -3.1891      2.00000
      9      -3.0048      2.00000
     10      -1.6277      2.00000
     11      -1.4670      2.00000
     12      -0.9287      2.00000
     13      -0.5922      2.00000
     14      -0.4165      2.00000
     15      -0.1226      2.00000
     16       0.2612      2.00000
     17       0.3019      2.00000
     18       0.6806      2.00000
     19       0.8438      2.00000
     20       1.0050      2.00000
     21       1.1394      2.00000
     22       1.3322      2.00000
     23       1.6748      2.00000
     24       1.9681      2.00000
     25       3.9555      2.00000
     26       3.9929      2.00000
     27       4.1923      2.00000
     28       4.4831      2.00000
     29       4.4996      2.00000
     30       4.5070      2.00000
     31       4.6460      2.00000
     32       4.7300      2.00000
     33       4.7802      2.00000
     34       5.9601      0.00000
[...]
     22       1.5583      2.00000
     23       1.9657      2.00000
     24       1.9659      2.00000
     25       4.3117      2.00000
     26       4.3120      2.00000
     27       4.4638      2.00000
     28       4.7872      2.00000
     29       4.8250      2.00000
     30       4.8253      2.00000
     31       5.0435      2.00000
     32       5.0438      2.00000
     33       5.1154      2.00000
     34       6.6901      0.00000
     35       6.6904      0.00000
     36       7.1187      0.00000
     37       7.1806      0.00000
     38       7.3544      0.00000
     39       7.3548      0.00000
     40      14.9252      0.00000

 k-point    28 :       0.1818    0.1818    0.5000
  band No.  band energies     occupation 
      1     -14.8038      2.00000
      2     -14.8034      2.00000
      3     -14.2473      2.00000
      4     -13.8807      2.00000
      5     -13.1502      2.00000
      6     -13.1498      2.00000
      7      -3.3258      2.00000
      8      -3.3255      2.00000
      9      -2.6919      2.00000
     10      -0.7486      2.00000
     11      -0.7486      2.00000
     12      -0.4116      2.00000
     13      -0.0570      2.00000
     14      -0.0569      2.00000
     15       0.1499      2.00000
     16       0.4853      2.00000
     17       0.5057      2.00000
     18       0.5059      2.00000
     19       1.0653      2.00000
     20       1.2391      2.00000
     21       1.2393      2.00000
     22       1.5426      2.00000
     23       2.5674      2.00000
     24       2.5676      2.00000
     25       4.5427      2.00000
     26       4.5430      2.00000
     27       4.7267      2.00000
     28       4.9255      2.00000
     29       4.9945      2.00000
     30       4.9946      2.00000
     31       5.1998      2.00000
     32       5.2033      2.00000
     33       5.2034      2.00000
     34       6.6085      0.00000
     35       6.6901      0.00000
     36       6.6901      0.00000
     37       7.0091      0.00000
     38       7.1219      0.00000
     39       7.1219      0.00000
     40      14.0736      0.00000

 k-point    29 :       0.2727    0.1818    0.5000
  band No.  band energies     occupation 
      1     -14.5321      2.00000
      2     -14.5150      2.00000
      3     -14.2159      2.00000
      4     -13.5434      2.00000
      5     -13.1475      2.00000
      6     -13.1235      2.00000
      7      -3.1190      2.00000
      8      -3.0328      2.00000
      9      -2.7921      2.00000
     10      -1.2164      2.00000
     11      -0.8550      2.00000
     12      -0.7146      2.00000
     13      -0.3510      2.00000
     14      -0.1485      2.00000
     15      -0.0693      2.00000
     16       0.3511      2.00000
     17       0.4127      2.00000
     18       0.4596      2.00000
     19       0.9293      2.00000
     20       1.0950      2.00000
     21       1.1278      2.00000
     22       1.4144      2.00000
     23       2.1240      2.00000
     24       2.3352      2.00000
     25       4.4401      2.00000
     26       4.5520      2.00000
     27       4.7358      2.00000
     28       4.8959      2.00000
     29       4.9194      2.00000
     30       4.9237      2.00000
     31       4.9731      2.00000
     32       5.1834      2.00000
     33       5.2501      2.00000
     34       6.5888      0.00000
     35       6.7102      0.00000
     36       6.7781      0.00000
     37       7.0255      0.00000
     38       7.0809      0.00000
     39       7.1576      0.00000
     40      14.7773      0.00000

 k-point    30 :       0.3636    0.1818    0.5000
  band No.  band energies     occupation 
      1     -14.3348      2.00000
      2     -14.3297      2.00000
      3     -14.2355      2.00000
      4     -13.2809      2.00000
      5     -13.1501      2.00000
      6     -13.1465      2.00000
      7      -2.9644      2.00000
      8      -2.8631      2.00000
      9      -2.8204      2.00000
     10      -1.5970      2.00000
     11      -0.8721      2.00000
     12      -0.8630      2.00000
     13      -0.6338      2.00000
     14      -0.5013      2.00000
     15      -0.2147      2.00000
     16       0.4480      2.00000
     17       0.4935      2.00000
     18       0.6216      2.00000
     19       0.8100      2.00000
     20       0.9572      2.00000
     21       1.1979      2.00000
     22       1.5878      2.00000
     23       1.6791      2.00000
     24       2.0247      2.00000
     25       4.4134      2.00000
     26       4.5295      2.00000
     27       4.5365      2.00000
     28       4.8095      2.00000
     29       4.8648      2.00000
     30       4.8944      2.00000
     31       5.0097      2.00000
     32       5.1661      2.00000
     33       5.2067      2.00000
     34       6.6698      0.00000
     35       6.7365      0.00000
     36       6.8407      0.00000
     37       7.1045      0.00000
     38       7.1051      0.00000
     39       7.1553      0.00000
     40      15.3312      0.00000

 k-point    31 :       0.2727    0.2727    0.5000
  band No.  band energies     occupation 
      1     -14.3382      2.00000
      2     -14.3379      2.00000
      3     -14.2054      2.00000
      4     -13.3019      2.00000
      5     -13.1236      2.00000
      6     -13.1232      2.00000
      7      -2.8743      2.00000
      8      -2.8740      2.00000
      9      -2.7724      2.00000
     10      -1.1075      2.00000
     11      -1.1073      2.00000
     12      -0.7849      2.00000
     13      -0.3584      2.00000
     14      -0.3583      2.00000
     15      -0.2120      2.00000
     16      -0.1652      2.00000
     17       0.1206      2.00000
     18       0.1209      2.00000
     19       1.0310      2.00000
     20       1.0312      2.00000
     21       1.2974      2.00000
     22       1.3494      2.00000
     23       1.8959      2.00000
     24       1.8961      2.00000
     25       4.5026      2.00000
     26       4.5029      2.00000
     27       4.6297      2.00000
     28       4.8487      2.00000
     29       4.8490      2.00000
     30       4.9112      2.00000
     31       5.0120      2.00000
     32       5.2570      2.00000
     33       5.2573      2.00000
     34       6.6735      0.00000
     35       6.6736      0.00000
     36       6.7715      0.00000
     37       6.9579      0.00000
     38       7.0589      0.00000
     39       7.0590      0.00000
     40      15.4021      0.00000

 k-point    32 :       0.3636    0.2727    0.5000
  band No.  band energies     occupation 
      1     -14.2621      2.00000
      2     -14.2387      2.00000
      3     -14.2383      2.00000
      4     -13.1593      2.00000
      5     -13.1590      2.00000
      6     -13.1228      2.00000
      7      -2.7828      2.00000
      8      -2.7826      2.00000
      9      -2.7590      2.00000
     10      -1.2157      2.00000
     11      -0.7724      2.00000
     12      -0.7720      2.00000
     13      -0.5938      2.00000
     14      -0.5935      2.00000
     15      -0.3972      2.00000
     16      -0.1565      2.00000
     17      -0.1561      2.00000
     18       0.0160      2.00000
     19       1.1749      2.00000
     20       1.1752      2.00000
     21       1.3796      2.00000
     22       1.4524      2.00000
     23       1.6161      2.00000
     24       1.6164      2.00000
     25       4.5067      2.00000
     26       4.5070      2.00000
     27       4.5151      2.00000
     28       4.8261      2.00000
     29       4.8721      2.00000
     30       4.8722      2.00000
     31       5.1802      2.00000
     32       5.1803      2.00000
     33       5.2654      2.00000
     34       6.7026      0.00000
     35       6.7131      0.00000
     36       6.7134      0.00000
     37       6.9968      0.00000
     38       6.9970      0.00000
     39       7.0262      0.00000
     40      16.2086      0.00000


--------------------------------------------------------------------------------------------------------


 soft charge-density along one line, spin component           1
         0         1         2         3         4         5         6         7         8         9
 total charge-density along one line
 
 pseudopotential strength for first ion, spin component:           1
 -3.364   0.000   0.000   0.150   0.000  -3.902   0.000   0.000
  0.000  -3.390   0.000  -0.000   0.150   0.000  -3.926   0.000
  0.000   0.000  -3.171   0.000  -0.000   0.000   0.000  -3.716
  0.150  -0.000   0.000  -3.390  -0.000   0.145  -0.000   0.000
  0.000   0.150  -0.000  -0.000  -3.364   0.000   0.145  -0.000
 -3.902   0.000   0.000   0.145   0.000  -4.383   0.000   0.000
  0.000  -3.926   0.000  -0.000   0.145   0.000  -4.407   0.000
  0.000   0.000  -3.716   0.000  -0.000   0.000   0.000  -4.204
  0.145  -0.000   0.000  -3.926  -0.000   0.139  -0.000   0.000
  0.000   0.145  -0.000  -0.000  -3.902   0.000   0.139  -0.000
  0.000  -0.000  -0.011   0.000  -0.000   0.000  -0.000  -0.011
  0.000  -0.000  -0.019   0.000  -0.000   0.000  -0.000  -0.019
 -0.000  -0.000   0.000   0.000   0.000  -0.000  -0.000   0.000
  0.000  -0.000  -0.000  -0.000   0.000   0.000  -0.000  -0.000
 -0.000   0.000   0.000  -0.000  -0.000  -0.000   0.000   0.000
 -0.000  -0.000   0.000   0.000   0.000  -0.000  -0.000   0.000
  0.000  -0.000  -0.000  -0.000   0.000   0.000  -0.000  -0.000
 -0.000   0.000   0.000  -0.000  -0.000  -0.000   0.000   0.000
 total augmentation occupancy for first ion, spin component:           1
  6.567  -0.000  -0.000   1.218  -0.000  -5.042  -0.000   0.000   0.612   0.000  -0.000   0.000   0.000   0.000   0.000   0.000
 -0.000   4.308   0.000   0.000   1.218  -0.000  -3.859   0.000  -0.000   0.564  -0.000   0.000   0.000   0.000   0.000   0.000
 -0.000   0.000   6.427  -0.000   0.000   0.000   0.000  -3.557  -0.000  -0.000   0.850  -0.217   0.000   0.000   0.000   0.000
  1.218   0.000  -0.000   4.308   0.000   0.564  -0.000  -0.000  -3.859   0.000   0.000   0.000   0.000   0.000   0.000   0.000
 -0.000   1.218   0.000   0.000   6.567   0.000   0.612  -0.000   0.000  -5.042   0.000  -0.000   0.000   0.000   0.000   0.000
 -5.042  -0.000   0.000   0.564   0.000   5.107   0.000  -0.000  -1.816  -0.000   0.000  -0.000   0.000   0.000   0.000   0.000
 -0.000  -3.859   0.000  -0.000   0.612   0.000   4.653  -0.000   0.000  -1.816   0.000  -0.000  -0.000   0.000   0.000   0.000
  0.000   0.000  -3.557  -0.000  -0.000  -0.000  -0.000   2.713   0.000   0.000  -0.791   0.214   0.000   0.000  -0.000   0.000
  0.612  -0.000  -0.000  -3.859   0.000  -1.816   0.000   0.000   4.653  -0.000  -0.000  -0.000  -0.000   0.000   0.000   0.000
  0.000   0.564  -0.000   0.000  -5.042  -0.000  -1.816   0.000  -0.000   5.107  -0.000   0.000   0.000   0.000   0.000   0.000
 -0.000  -0.000   0.850   0.000   0.000   0.000   0.000  -0.791  -0.000  -0.000   2.851  -0.587  -0.000   0.000  -0.000   0.000
  0.000   0.000  -0.217   0.000  -0.000  -0.000  -0.000   0.214  -0.000   0.000  -0.587   0.150   0.000   0.000   0.000   0.000
  0.000   0.000   0.000   0.000   0.000   0.000   0.000   0.000   0.000   0.000   0.000   0.000   0.510  -0.000   0.000  -0.087
  0.000   0.000   0.000   0.000   0.000   0.000   0.000   0.000   0.000   0.000   0.000   0.000  -0.000   0.403  -0.000   0.000
  0.000   0.000   0.000   0.000   0.000   0.000   0.000  -0.000   0.000   0.000  -0.000   0.000   0.000  -0.000   0.510  -0.000
  0.000   0.000   0.000   0.000   0.000   0.000   0.000   0.000  -0.000   0.000   0.000  -0.000  -0.087   0.000  -0.000   0.018
  0.000   0.000   0.000   0.000   0.000   0.000   0.000   0.000   0.000   0.000   0.000   0.000   0.000  -0.063   0.000  -0.000
  0.000   0.000   0.000   0.000   0.000   0.000   0.000   0.000   0.000   0.000   0.000  -0.000  -0.000   0.000  -0.087   0.000


------------------------ aborting loop because EDIFF is reached ----------------------------------------


    CHARGE:  cpu time    0.0500: real time    0.0502
    FORLOC:  cpu time    0.0013: real time    0.0013
    FORNL :  cpu time    0.2916: real time    0.2927
    STRESS:  cpu time    0.5927: real time    0.5948
    FORCOR:  cpu time    0.0106: real time    0.0106
    FORHAR:  cpu time    0.0035: real time    0.0035
    MIXING:  cpu time    0.0007: real time    0.0007
    OFIELD:  cpu time    0.0000: real time    0.0000

  FORCE on cell =-STRESS in cart. coord.  units (eV):
  Direction    XX          YY          ZZ          XY          YZ          ZX
  --------------------------------------------------------------------------------------
  Alpha Z   207.87232   207.87232   207.87232
  Ewald    -927.27390  -927.27390 -2024.66004    -0.00000    -0.00000     0.00000
  Hartree   778.13457   778.13457  -107.36181    -0.00001    -0.00000    -0.00000
  E(xc)    -328.20315  -328.20281  -326.57080     0.00028     0.00015     0.00011
  Local   -1128.52129 -1128.52563   879.01675    -0.00390    -0.00101    -0.00063
  n-local  -162.43562  -163.62787  -168.92892     2.88359    -1.49448    -5.67181
  augment   504.35976   504.36073   509.82012     0.00084     0.00026     0.00012
  Kinetic  1055.95783  1057.71974  1030.17666    -3.97769     2.03308    10.04963
  Fock        0.00000     0.00000     0.00000     0.00000     0.00000     0.00000
  -------------------------------------------------------------------------------------
  Total       0.17383     0.17383    -0.63573     0.00000    -0.00000    -0.00000
  in kB       3.05158     3.05158   -11.16002     0.00000    -0.00000    -0.00000
  external pressure =       -1.69 kB  Pullay stress =        0.00 kB


 VOLUME and BASIS-vectors are now :
 -----------------------------------------------------------------------------
  energy-cutoff  :      400.00
  volume of cell :       91.27
      direct lattice vectors                 reciprocal lattice vectors
     2.853660853 -0.000000000 -0.000000000     0.350427066  0.202319161  0.000000000
    -1.426830426  2.471342792 -0.000000000     0.000000000  0.404638322  0.000000000
    -0.000000000 -0.000000000 12.941427894     0.000000000  0.000000000  0.077271226

  length of vectors
     2.853660853  2.853660853 12.941427894     0.404638322  0.404638322  0.077271226


 FORCES acting on ions
    electron-ion (+dipol)            ewald-force                    non-local-force                 convergence-correction
 -----------------------------------------------------------------------------------------------
   -.475E-09 -.503E-07 0.102E-06   0.452E-08 0.479E-06 0.677E-06   -.262E-21 0.120E-20 0.000E+00   0.117E-13 0.204E-11 -.147E-07
   0.106E-05 0.324E-06 0.158E-02   -.905E-08 -.150E-05 -.300E-05   -.585E-21 -.120E-20 0.000E+00   0.517E-10 -.363E-10 -.259E-04
   -.105E-05 0.446E-06 -.158E-02   0.454E-08 0.102E-05 0.267E-05   -.312E-21 0.125E-20 -.482E-20   -.516E-10 0.392E-10 0.259E-04
   -.955E-04 -.129E-03 -.219E+03   0.446E-08 0.633E-06 0.222E+03   -.497E-16 0.526E-16 -.277E+01   0.176E-08 -.122E-08 -.909E-03
   -.103E-03 -.128E-03 -.219E+03   -.486E-08 -.884E-06 0.222E+03   0.267E-16 0.734E-16 -.277E+01   0.178E-08 -.126E-08 -.869E-03
   -.889E-04 -.133E-03 -.219E+03   0.402E-09 0.250E-06 0.222E+03   0.232E-16 0.318E-16 -.277E+01   0.172E-08 -.124E-08 -.935E-03
   0.955E-04 0.129E-03 0.219E+03   0.389E-09 -.120E-06 -.222E+03   0.136E-15 -.387E-16 0.277E+01   -.176E-08 0.122E-08 0.909E-03
   0.888E-04 0.130E-03 0.219E+03   -.485E-08 -.723E-06 -.222E+03   0.102E-15 -.387E-16 0.277E+01   -.172E-08 0.125E-08 0.935E-03
   0.103E-03 0.124E-03 0.219E+03   0.446E-08 0.842E-06 -.222E+03   0.184E-16 0.294E-17 0.277E+01   -.178E-08 0.127E-08 0.869E-03
   -.298E-10 -.320E-08 0.671E-06   0.549E-10 0.583E-08 -.463E-06   -.330E-22 0.303E-22 0.000E+00   -.143E-14 -.106E-13 0.186E-08
   -.133E-06 -.176E-06 -.196E-03   -.110E-09 -.182E-07 0.453E-06   -.253E-24 -.306E-22 0.000E+00   0.241E-11 0.315E-12 0.756E-05
   0.130E-06 -.144E-06 0.196E-03   0.551E-10 0.124E-07 -.167E-06   -.286E-22 0.185E-22 0.373E-21   -.240E-11 0.181E-12 -.756E-05
 -----------------------------------------------------------------------------------------------
   -.692E-07 -.735E-05 -.284E-05   -.217E-13 -.106E-13 0.153E-12   0.257E-15 0.833E-16 0.444E-15   0.253E-12 0.230E-10 -.281E-09
 
 
 POSITION                                       TOTAL-FORCE (eV/Angst)
 -----------------------------------------------------------------------------------
     -0.00000     -0.00000     -0.00000        -0.000000      0.000000      0.000000
      1.42683      0.82378      4.31381        -0.000000      0.000000      0.000000
     -0.00000      1.64756      8.62762        -0.000000      0.000000     -0.000000
     -0.00000     -0.00000      5.26902        -0.000000     -0.000000      0.050485
      1.42683      0.82378      9.58283        -0.000000     -0.000000      0.050485
     -0.00000      1.64756      0.95521        -0.000000     -0.000000      0.050485
     -0.00000     -0.00000      7.67241         0.000000      0.000000     -0.050485
      1.42683      0.82378     11.98621         0.000000      0.000000     -0.050485
     -0.00000      1.64756      3.35860         0.000000      0.000000     -0.050485
     -0.00000     -0.00000      6.47071        -0.000000      0.000000      0.000000
      1.42683      0.82378     10.78452        -0.000000      0.000000      0.000000
     -0.00000      1.64756      2.15690        -0.000000      0.000000     -0.000000
 -----------------------------------------------------------------------------------
    total drift:                               -0.000000     -0.000007     -0.000003


--------------------------------------------------------------------------------------------------------



  FREE ENERGIE OF THE ION-ELECTRON SYSTEM (eV)
  ---------------------------------------------------
  free  energy   TOTEN  =       -73.46086006 eV

  energy  without entropy=      -73.46086005  energy(sigma->0) =      -73.46086005
 
 d Force = 0.2029511E-01[ 0.314E-02, 0.374E-01]  d Energy = 0.9242885E-01-0.721E-01
 d Force = 0.1409729E+02[ 0.138E+02, 0.144E+02]  d Ewald  =-0.2577027E+02 0.399E+02


--------------------------------------------------------------------------------------------------------


    POTLOK:  cpu time    0.0144: real time    0.0144


--------------------------------------------------------------------------------------------------------


 stress matrix after NEB project (eV)
      0.17383      0.00000     -0.00000
      0.00000      0.17383     -0.00000
      0.00000     -0.00000     -0.63573
  FORCES: max atom, RMS     0.050485    0.035698
  FORCE total and by dimension    0.123662    0.050485
  Stress total and by dimension    0.681606    0.635729


--------------------------------------------------------------------------------------------------------


  
 reached required accuracy - stopping structural energy minimisation
     LOOP+:  cpu time   12.9200: real time   12.9844
    4ORBIT:  cpu time    0.0000: real time    0.0000

 total amount of memory used by VASP MPI-rank0    39523. kBytes
=======================================================================

   base      :      30000. kBytes
   nonl-proj :       6110. kBytes
   fftplans  :        343. kBytes
   grid      :        608. kBytes
   one-center:         46. kBytes
   wavefun   :       2416. kBytes
 
  
  
 General timing and accounting informations for this job:
 ========================================================
  
                  Total CPU time used (sec):       52.483
                            User time (sec):       50.946
                          System time (sec):        1.536
                         Elapsed time (sec):       52.911
  
                   Maximum memory used (kb):       53828.
                   Average memory used (kb):           0.
  
                          Minor page faults:        14354
                          Major page faults:           11
                 Voluntary context switches:         1033
