 vasp.5.4.4.18Apr17-6-g9f103f2a35 (build Apr 13 2025 12:23:30) complex          
  
 executed on             LinuxIFC date 2025.04.17  14:00:12
 running on   16 total cores
 distrk:  each k-point on   16 cores,    1 groups
 distr:  one band on NCORES_PER_BAND=   4 cores,    4 groups


--------------------------------------------------------------------------------------------------------


 INCAR:
 POTCAR:    PAW_PBE Co 02Aug2007                  
 POTCAR:    PAW_PBE O 08Apr2002                   
 POTCAR:    PAW_PBE Co 02Aug2007                  
   SHA256 =  0e690c60710354995174544f52f9f2c30879afabeffe3b3fbd4001cb294e56d4 Co
   COPYR  = (c) Copyright 02Aug2007 Georg Kresse                                
   COPYR  = This file is part of the software VASP. Any use, copying, and all ot
   COPYR  = If you do not have a valid VASP license, you may not use, copy or di
   VRHFIN =Co: d8 s1                                                            
   LEXCH  = PE                                                                  
   EATOM  =   813.3670 eV,   59.7808 Ry                                         
                                                                                
   TITEL  = PAW_PBE Co 02Aug2007                                                
   LULTRA =        F    use ultrasoft PP ?                                      
   IUNSCR =        1    unscreen: 0-lin 1-nonlin 2-no                           
   RPACOR =    2.000    partial core radius                                     
   POMASS =   58.933; ZVAL   =    9.000    mass and valenz                      
   RCORE  =    2.300    outmost cutoff radius                                   
   RWIGS  =    2.460; RWIGS  =    1.302    wigner-seitz radius (au A)           
   ENMAX  =  267.968; ENMIN  =  200.976 eV                                      
   RCLOC  =    1.203    cutoff for local pot                                    
   LCOR   =        T    correct aug charges                                     
   LPAW   =        T    paw PP                                                  
   EAUG   =  477.818                                                            
   DEXC   =    0.000                                                            
   RMAX   =    2.360    core radius for proj-oper                               
   RAUG   =    1.300    factor for augmentation sphere                          
   RDEP   =    2.393    radius for radial grids                                 
   RDEPT  =    1.864    core radius for aug-charge                              
                                                                                
   Atomic configuration                                                         
    9 entries                                                                   
     n  l   j            E        occ.                                          
     1  0  0.50     -7587.6674   2.0000                                         
     2  0  0.50      -893.6084   2.0000                                         
     2  1  1.50      -764.5805   6.0000                                         
     3  0  0.50       -97.5973   2.0000                                         
     3  1  1.50       -60.9648   6.0000                                         
     3  2  2.50        -4.2382   8.0000                                         
     4  0  0.50        -4.3746   1.0000                                         
     4  1  1.50        -4.0817   0.0000                                         
     4  3  2.50        -1.3606   0.0000                                         
   Description                                                                  
     l       E           TYP  RCUT    TYP  RCUT                                 
     2     -4.2382362     23  2.300                                             
     2     -5.5988188     23  2.300                                             
     0     -4.3745797     23  2.300                                             
     0      5.7660125     23  2.300                                             
     1     -2.7211652     23  2.300                                             
     1     16.9860234     23  2.300                                             
  local pseudopotential read in
  partial core-charges read in
  partial kinetic energy density read in
  atomic valenz-charges read in
  non local Contribution for L=           2  read in
    real space projection operators read in
  non local Contribution for L=           2  read in
    real space projection operators read in
  non local Contribution for L=           0  read in
    real space projection operators read in
  non local Contribution for L=           0  read in
    real space projection operators read in
  non local Contribution for L=           1  read in
    real space projection operators read in
  non local Contribution for L=           1  read in
    real space projection operators read in
    PAW grid and wavefunctions read in
 
   number of l-projection  operators is LMAX  =           6
   number of lm-projection operators is LMMAX =          18
 
 POTCAR:    PAW_PBE O 08Apr2002                   
   SHA256 =  818f92134a0a090dccd8ba1447fa70422a3b330e708bb4f08108d8ae51209ddf O/
   COPYR  = (c) Copyright 08Apr2002 Georg Kresse                                
   COPYR  = This file is part of the software VASP. Any use, copying, and all ot
   COPYR  = If you do not have a valid VASP license, you may not use, copy or di
   VRHFIN =O: s2p4                                                              
   LEXCH  = PE                                                                  
   EATOM  =   432.3788 eV,   31.7789 Ry                                         
                                                                                
   TITEL  = PAW_PBE O 08Apr2002                                                 
   LULTRA =        F    use ultrasoft PP ?                                      
   IUNSCR =        1    unscreen: 0-lin 1-nonlin 2-no                           
   RPACOR =    1.200    partial core radius                                     
   POMASS =   16.000; ZVAL   =    6.000    mass and valenz                      
   RCORE  =    1.520    outmost cutoff radius                                   
   RWIGS  =    1.550; RWIGS  =    0.820    wigner-seitz radius (au A)           
   ENMAX  =  400.000; ENMIN  =  300.000 eV                                      
   ICORE  =        2    local potential                                         
   LCOR   =        T    correct aug charges                                     
   LPAW   =        T    paw PP                                                  
   EAUG   =  605.392                                                            
   DEXC   =    0.000                                                            
   RMAX   =    1.553    core radius for proj-oper                               
   RAUG   =    1.300    factor for augmentation sphere                          
   RDEP   =    1.550    radius for radial grids                                 
   RDEPT  =    1.329    core radius for aug-charge                              
                                                                                
   Atomic configuration                                                         
    4 entries                                                                   
     n  l   j            E        occ.                                          
     1  0  0.50      -514.6923   2.0000                                         
     2  0  0.50       -23.9615   2.0000                                         
     2  1  0.50        -9.0305   4.0000                                         
     3  2  1.50        -9.5241   0.0000                                         
   Description                                                                  
     l       E           TYP  RCUT    TYP  RCUT                                 
     0    -23.9615318     23  1.200                                             
     0     -9.5240782     23  1.200                                             
     1     -9.0304911     23  1.520                                             
     1      8.1634956     23  1.520                                             
     2     -9.5240782      7  1.500                                             
  local pseudopotential read in
  partial core-charges read in
  partial kinetic energy density read in
  kinetic energy density of atom read in
  atomic valenz-charges read in
  non local Contribution for L=           0  read in
    real space projection operators read in
  non local Contribution for L=           0  read in
    real space projection operators read in
  non local Contribution for L=           1  read in
    real space projection operators read in
  non local Contribution for L=           1  read in
    real space projection operators read in
    PAW grid and wavefunctions read in
 
   number of l-projection  operators is LMAX  =           4
   number of lm-projection operators is LMMAX =           8
 

 ----------------------------------------------------------------------------- 
|                                                                             |
|  ADVICE TO THIS USER RUNNING 'VASP/VAMP'   (HEAR YOUR MASTER'S VOICE ...):  |
|                                                                             |
|      You have a (more or less) 'large supercell' and for larger cells       |
|      it might be more efficient to use real space projection opertators     |
|      So try LREAL= Auto  in the INCAR   file.                               |
|      Mind:          For very  accurate calculation you might also keep the  |
|      reciprocal projection scheme          (i.e. LREAL=.FALSE.)             |
|                                                                             |
 ----------------------------------------------------------------------------- 

  PAW_PBE Co 02Aug2007                  :
 energy of atom  1       EATOM= -813.3670
 kinetic energy error for atom=    0.0093 (will be added to EATOM!!)
  PAW_PBE O 08Apr2002                   :
 energy of atom  2       EATOM= -432.3788
 kinetic energy error for atom=    0.1156 (will be added to EATOM!!)
 
 
 POSCAR: Co O                                    
  positions in cartesian coordinates
  No initial velocities read in
 exchange correlation table for  LEXCH =        8
   RHO(1)=    0.500       N(1)  =     2000
   RHO(2)=  100.500       N(2)  =     4000

 VTST: version 3.2, (02/03/18)

 CHAIN: initializing optimizer
 
 OPT: Using VASP Conjugate-Gradient optimizer
 CHAIN: Read ICHAIN            0
 
 POSCAR: Co O                                    
  positions in cartesian coordinates
  No initial velocities read in
 


--------------------------------------------------------------------------------------------------------


 ion  position               nearest neighbor table
   1  0.625  0.625  0.625-  31 1.93  40 1.93  47 1.93  26 1.93  38 1.93  50 1.93   4 2.89  12 2.89
                            14 2.89  10 2.89   2 2.89   9 2.89
   2  0.625  0.875  0.875-  27 1.93  48 1.93  45 1.93  32 1.93  50 1.93  38 1.93   3 2.89  13 2.89
                             8 2.89   9 2.89  10 2.89   1 2.89
   3  0.375  0.875  0.125-  29 1.93  39 1.93  48 1.93  54 1.93  28 1.93  45 1.93  11 2.89   8 2.89
                             2 2.89  13 2.89   4 2.89  15 2.89
   4  0.375  0.625  0.375-  25 1.93  40 1.93  47 1.93  54 1.93  39 1.93  30 1.93   1 2.89  12 2.89
                            14 2.89  15 2.89  11 2.89   3 2.89
   5  0.125  0.375  0.875-  41 1.93  44 1.93  43 1.93  55 1.93  46 1.93  53 1.93  13 2.89  10 2.89
                            15 2.89   6 2.89  14 2.89  16 2.89
   6  0.875  0.375  0.125-  41 1.93  51 1.93  33 1.93  36 1.93  42 1.93  53 1.93   7 2.89  10 2.89
                            15 2.89   5 2.89  12 2.89   8 2.89
   7  0.875  0.125  0.375-  37 1.93  34 1.93  49 1.93  36 1.93  42 1.93  56 1.93   6 2.89   9 2.89
                            16 2.89  11 2.89  12 2.89   8 2.89
   8  0.625  0.125  0.125-  42 1.93  34 1.93  51 1.93  29 1.93  48 1.93  27 1.93  12 2.89   3 2.89
                            13 2.89   2 2.89   6 2.89   7 2.89
   9  0.875  0.875  0.625-  35 1.93  49 1.93  56 1.93  26 1.93  38 1.93  32 1.93   7 2.89  11 2.89
                            16 2.89  10 2.89   2 2.89   1 2.89
  10  0.875  0.625  0.875-  33 1.93  43 1.93  53 1.93  50 1.93  32 1.93  26 1.93   5 2.89   6 2.89
                            15 2.89   2 2.89   9 2.89   1 2.89
  11  0.125  0.875  0.375-  37 1.93  30 1.93  35 1.93  54 1.93  28 1.93  56 1.93   3 2.89   9 2.89
                            16 2.89   7 2.89  15 2.89   4 2.89
  12  0.625  0.375  0.375-  25 1.93  31 1.93  47 1.93  36 1.93  34 1.93  51 1.93   1 2.89   4 2.89
                            14 2.89   8 2.89   6 2.89   7 2.89
  13  0.375  0.125  0.875-  29 1.93  52 1.93  27 1.93  55 1.93  46 1.93  45 1.93   5 2.89   2 2.89
                             8 2.89   3 2.89  14 2.89  16 2.89
  14  0.375  0.375  0.625-  25 1.93  31 1.93  40 1.93  55 1.93  52 1.93  44 1.93   1 2.89   4 2.89
                            12 2.89  16 2.89  13 2.89   5 2.89
  15  0.125  0.625  0.125-  28 1.93  30 1.93  39 1.93  41 1.93  33 1.93  43 1.93   4 2.89   5 2.89
                             6 2.89  10 2.89   3 2.89  11 2.89
  16  0.125  0.125  0.625-  46 1.93  44 1.93  52 1.93  37 1.93  49 1.93  35 1.93  14 2.89  11 2.89
                             7 2.89   9 2.89  13 2.89   5 2.89
  17  0.000  0.000  0.000-  28 1.97  42 1.97  46 1.97  32 1.97
  18  0.250  0.250  0.250-  25 1.97  29 1.97  37 1.97  41 1.97
  19  0.000  0.500  0.500-  30 1.97  44 1.97  36 1.97  26 1.97
  20  0.750  0.250  0.750-  31 1.97  53 1.97  49 1.97  27 1.97
  21  0.500  0.000  0.500-  34 1.97  52 1.97  54 1.97  38 1.97
  22  0.250  0.750  0.750-  40 1.97  45 1.97  43 1.97  35 1.97
  23  0.500  0.500  0.000-  39 1.97  51 1.97  55 1.97  50 1.97
  24  0.750  0.750  0.250-  47 1.97  56 1.97  48 1.97  33 1.97
  25  0.390  0.390  0.390-   4 1.93  12 1.93  14 1.93  18 1.97
  26  0.860  0.640  0.640-   1 1.93   9 1.93  10 1.93  19 1.97
  27  0.610  0.110  0.890-   2 1.93  13 1.93   8 1.93  20 1.97
  28  0.140  0.860  0.140-  15 1.93  11 1.93   3 1.93  17 1.97
  29  0.390  0.110  0.110-   3 1.93  13 1.93   8 1.93  18 1.97
  30  0.140  0.640  0.360-  11 1.93  15 1.93   4 1.93  19 1.97
  31  0.610  0.390  0.610-   1 1.93  12 1.93  14 1.93  20 1.97
  32  0.860  0.860  0.860-   2 1.93  10 1.93   9 1.93  17 1.97
  33  0.890  0.610  0.110-  10 1.93   6 1.93  15 1.93  24 1.97
  34  0.640  0.140  0.360-   7 1.93   8 1.93  12 1.93  21 1.97
  35  0.110  0.890  0.610-   9 1.93  11 1.93  16 1.93  22 1.97
  36  0.860  0.360  0.360-  12 1.93   7 1.93   6 1.93  19 1.97
  37  0.110  0.110  0.390-   7 1.93  11 1.93  16 1.93  18 1.97
  38  0.640  0.860  0.640-   1 1.93   9 1.93   2 1.93  21 1.97
  39  0.360  0.640  0.140-   3 1.93  15 1.93   4 1.93  23 1.97
  40  0.390  0.610  0.610-   1 1.93   4 1.93  14 1.93  22 1.97
  41  0.110  0.390  0.110-   5 1.93   6 1.93  15 1.93  18 1.97
  42  0.860  0.140  0.140-   8 1.93   7 1.93   6 1.93  17 1.97
  43  0.110  0.610  0.890-  10 1.93   5 1.93  15 1.93  22 1.97
  44  0.140  0.360  0.640-   5 1.93  16 1.93  14 1.93  19 1.97
  45  0.390  0.890  0.890-   2 1.93   3 1.93  13 1.93  22 1.97
  46  0.140  0.140  0.860-  16 1.93  13 1.93   5 1.93  17 1.97
  47  0.610  0.610  0.390-   1 1.93   4 1.93  12 1.93  24 1.97
  48  0.610  0.890  0.110-   2 1.93   3 1.93   8 1.93  24 1.97
  49  0.890  0.110  0.610-   9 1.93   7 1.93  16 1.93  20 1.97
  50  0.640  0.640  0.860-   2 1.93  10 1.93   1 1.93  23 1.97
  51  0.640  0.360  0.140-   6 1.93   8 1.93  12 1.93  23 1.97
  52  0.360  0.140  0.640-  13 1.93  16 1.93  14 1.93  21 1.97
  53  0.890  0.390  0.890-  10 1.93   6 1.93   5 1.93  20 1.97
  54  0.360  0.860  0.360-   4 1.93   3 1.93  11 1.93  21 1.97
  55  0.360  0.360  0.860-  14 1.93  13 1.93   5 1.93  23 1.97
  56  0.890  0.890  0.390-   9 1.93   7 1.93  11 1.93  24 1.97
 
  LATTYP: Found a simple cubic cell.
 ALAT       =     8.1619898947
  
  Lattice vectors:
  
 A1 = (   8.1619898947,   0.0000000000,   0.0000000000)
 A2 = (   0.0000000000,   8.1619898947,   0.0000000000)
 A3 = (   0.0000000000,   0.0000000000,   8.1619898947)


Analysis of symmetry for initial positions (statically):
=====================================================================
 Subroutine PRICEL returns following result:
 
  LATTYP: Found a face centered cubic cell.
 ALAT       =     8.1619898947
  
  Lattice vectors:
  
 A1 = (   4.0809949473,   4.0809949473,   0.0000000000)
 A2 = (   4.0809949473,   0.0000000000,  -4.0809949473)
 A3 = (   0.0000000000,   4.0809949473,  -4.0809949473)
 
   4 primitive cells build up your supercell.
 

 Routine SETGRP: Setting up the symmetry group for a 
 simple cubic supercell.


 Subroutine GETGRP returns: Found 48 space group operations
 (whereof 24 operations were pure point group operations)
 out of a pool of 48 trial point group operations.


The static configuration has the point symmetry T_d .
 The point group associated with its full space group is O_h .


Analysis of symmetry for dynamics (positions and initial velocities):
=====================================================================
 Subroutine PRICEL returns following result:
 
  LATTYP: Found a face centered cubic cell.
 ALAT       =     8.1619898947
  
  Lattice vectors:
  
 A1 = (   4.0809949473,   4.0809949473,   0.0000000000)
 A2 = (   4.0809949473,   0.0000000000,  -4.0809949473)
 A3 = (   0.0000000000,   4.0809949473,  -4.0809949473)
 
   4 primitive cells build up your supercell.
 

 Routine SETGRP: Setting up the symmetry group for a 
 simple cubic supercell.


 Subroutine GETGRP returns: Found 48 space group operations
 (whereof 24 operations were pure point group operations)
 out of a pool of 48 trial point group operations.


The dynamic configuration has the point symmetry T_d .
 The point group associated with its full space group is O_h .


 Subroutine INISYM returns: Found 48 space group operations
 (whereof 24 operations are pure point group operations),
 and found     4 'primitive' translations

 
 
 KPOINTS: KPOINTS created by Atomic Simulation Env

Automatic generation of k-mesh.
Space group operators:
 irot       det(A)        alpha          n_x          n_y          n_z        tau_x        tau_y        tau_z
    1     1.000000     0.000001     1.000000     0.000000     0.000000     0.000000     0.000000     0.000000
    2     1.000000   120.000000    -0.577350    -0.577350    -0.577350     0.000000     0.000000     0.000000
    3     1.000000   120.000000     0.577350     0.577350     0.577350     0.000000     0.000000     0.000000
    4    -1.000000    90.000000     0.000000    -0.000000    -1.000000     0.000000     0.000000     0.000000
    5    -1.000000   180.000000     0.000000    -0.707107    -0.707107     0.000000     0.000000     0.000000
    6    -1.000000    90.000000    -0.000000     1.000000     0.000000     0.000000     0.000000     0.000000
    7     1.000000   180.000000    -0.000000    -0.000000     1.000000     0.000000     0.000000     0.000000
    8     1.000000   120.000000    -0.577350     0.577350     0.577350     0.000000     0.000000     0.000000
    9     1.000000   120.000000    -0.577350     0.577350    -0.577350     0.000000     0.000000     0.000000
   10    -1.000000    90.000000     0.000000    -0.000000     1.000000     0.000000     0.000000     0.000000
   11    -1.000000    90.000000    -1.000000     0.000000    -0.000000     0.000000     0.000000     0.000000
   12    -1.000000   180.000000     0.707107     0.000000     0.707107     0.000000     0.000000     0.000000
   13     1.000000   120.000000     0.577350    -0.577350     0.577350     0.000000     0.000000     0.000000
   14     1.000000   120.000000    -0.577350    -0.577350     0.577350     0.000000     0.000000     0.000000
   15     1.000000   180.000000     1.000000     0.000000     0.000000     0.000000     0.000000     0.000000
   16    -1.000000    90.000000    -0.000000    -1.000000     0.000000     0.000000     0.000000     0.000000
   17    -1.000000   180.000000     0.707107     0.707107    -0.000000     0.000000     0.000000     0.000000
   18    -1.000000    90.000000     1.000000     0.000000    -0.000000     0.000000     0.000000     0.000000
   19     1.000000   120.000000     0.577350    -0.577350    -0.577350     0.000000     0.000000     0.000000
   20     1.000000   180.000000     0.000000    -1.000000     0.000000     0.000000     0.000000     0.000000
   21     1.000000   120.000000     0.577350     0.577350    -0.577350     0.000000     0.000000     0.000000
   22    -1.000000   180.000000    -0.000000     0.707107    -0.707107     0.000000     0.000000     0.000000
   23    -1.000000   180.000000    -0.707107     0.707107    -0.000000     0.000000     0.000000     0.000000
   24    -1.000000   180.000000     0.707107     0.000000    -0.707107     0.000000     0.000000     0.000000
   25    -1.000000     0.000001     1.000000     0.000000     0.000000     0.750000     0.750000    -0.750000
   26    -1.000000   120.000000    -0.577350    -0.577350    -0.577350     0.750000     0.750000    -0.750000
   27    -1.000000   120.000000     0.577350     0.577350     0.577350     0.750000     0.750000    -0.750000
   28     1.000000    90.000000     0.000000    -0.000000    -1.000000     0.750000     0.750000    -0.750000
   29     1.000000   180.000000     0.000000    -0.707107    -0.707107     0.750000     0.750000    -0.750000
   30     1.000000    90.000000    -0.000000     1.000000     0.000000     0.750000     0.750000    -0.750000
   31    -1.000000   180.000000    -0.000000    -0.000000     1.000000     0.750000     0.750000    -0.750000
   32    -1.000000   120.000000    -0.577350     0.577350     0.577350     0.750000     0.750000    -0.750000
   33    -1.000000   120.000000    -0.577350     0.577350    -0.577350     0.750000     0.750000    -0.750000
   34     1.000000    90.000000     0.000000    -0.000000     1.000000     0.750000     0.750000    -0.750000
   35     1.000000    90.000000    -1.000000     0.000000    -0.000000     0.750000     0.750000    -0.750000
   36     1.000000   180.000000     0.707107     0.000000     0.707107     0.750000     0.750000    -0.750000
   37    -1.000000   120.000000     0.577350    -0.577350     0.577350     0.750000     0.750000    -0.750000
   38    -1.000000   120.000000    -0.577350    -0.577350     0.577350     0.750000     0.750000    -0.750000
   39    -1.000000   180.000000     1.000000     0.000000     0.000000     0.750000     0.750000    -0.750000
   40     1.000000    90.000000    -0.000000    -1.000000     0.000000     0.750000     0.750000    -0.750000
   41     1.000000   180.000000     0.707107     0.707107    -0.000000     0.750000     0.750000    -0.750000
   42     1.000000    90.000000     1.000000     0.000000    -0.000000     0.750000     0.750000    -0.750000
   43    -1.000000   120.000000     0.577350    -0.577350    -0.577350     0.750000     0.750000    -0.750000
   44    -1.000000   180.000000     0.000000    -1.000000     0.000000     0.750000     0.750000    -0.750000
   45    -1.000000   120.000000     0.577350     0.577350    -0.577350     0.750000     0.750000    -0.750000
   46     1.000000   180.000000    -0.000000     0.707107    -0.707107     0.750000     0.750000    -0.750000
   47     1.000000   180.000000    -0.707107     0.707107    -0.000000     0.750000     0.750000    -0.750000
   48     1.000000   180.000000     0.707107     0.000000    -0.707107     0.750000     0.750000    -0.750000
 
 Subroutine IBZKPT returns following result:
 ===========================================
 
 Found     10 irreducible k-points:
 
 Following reciprocal coordinates:
            Coordinates               Weight
  0.000000  0.000000  0.000000      1.000000
  0.250000  0.000000  0.000000      6.000000
  0.500000  0.000000  0.000000      3.000000
  0.250000  0.250000  0.000000     12.000000
  0.500000  0.250000  0.000000     12.000000
  0.500000  0.500000  0.000000      3.000000
  0.250000  0.250000  0.250000      8.000000
  0.500000  0.250000  0.250000     12.000000
  0.500000  0.500000  0.250000      6.000000
  0.500000  0.500000  0.500000      1.000000
 
 Following cartesian coordinates:
            Coordinates               Weight
  0.000000  0.000000  0.000000      1.000000
  0.030630 -0.000000 -0.000000      6.000000
  0.061260 -0.000000 -0.000000      3.000000
  0.030630  0.030630 -0.000000     12.000000
  0.061260  0.030630 -0.000000     12.000000
  0.061260  0.061260 -0.000000      3.000000
  0.030630  0.030630  0.030630      8.000000
  0.061260  0.030630  0.030630     12.000000
  0.061260  0.061260  0.030630      6.000000
  0.061260  0.061260  0.061260      1.000000
 


--------------------------------------------------------------------------------------------------------




 Dimension of arrays:
   k-points           NKPTS =     10   k-points in BZ     NKDIM =     10   number of bands    NBANDS=    244
   number of dos      NEDOS =    301   number of ions     NIONS =     56
   non local maximal  LDIM  =      6   non local SUM 2l+1 LMDIM =     18
   total plane-waves  NPLWV =  64000
   max r-space proj   IRMAX =      1   max aug-charges    IRDMAX=   4841
   dimension x,y,z NGX =    40 NGY =   40 NGZ =   40
   dimension x,y,z NGXF=    80 NGYF=   80 NGZF=   80
   support grid    NGXF=    80 NGYF=   80 NGZF=   80
   ions per type =              24  32
   NGX,Y,Z   is equivalent  to a cutoff of   8.15,  8.15,  8.15 a.u.
   NGXF,Y,Z  is equivalent  to a cutoff of  16.29, 16.29, 16.29 a.u.

 SYSTEM =  unknown system                          
 POSCAR =  Co O                                    

 Startparameter for this run:
   NWRITE =      2    write-flag & timer
   PREC   = normal    normal or accurate (medium, high low for compatibility)
   ISTART =      0    job   : 0-new  1-cont  2-samecut
   ICHARG =      2    charge: 1-file 2-atom 10-const
   ISPIN  =      1    spin polarized calculation?
   LNONCOLLINEAR =      F non collinear calculations
   LSORBIT =      F    spin-orbit coupling
   INIWAV =      1    electr: 0-lowe 1-rand  2-diag
   LASPH  =      F    aspherical Exc in radial PAW
   METAGGA=      F    non-selfconsistent MetaGGA calc.

 Electronic Relaxation 1
   ENCUT  =  400.0 eV  29.40 Ry    5.42 a.u.  13.31 13.31 13.31*2*pi/ulx,y,z
   ENINI  =  400.0     initial cutoff
   ENAUG  =  605.4 eV  augmentation charge cutoff
   NELM   =     60;   NELMIN=  4; NELMDL= -5     # of ELM steps 
   EDIFF  = 0.1E-05   stopping-criterion for ELM
   LREAL  =      F    real-space projection
   NLSPLINE    = F    spline interpolate recip. space projectors
   LCOMPAT=      F    compatible to vasp.4.4
   GGA_COMPAT  = T    GGA compatible to vasp.4.4-vasp.4.6
   LMAXPAW     = -100 max onsite density
   LMAXMIX     =    2 max onsite mixed and CHGCAR
   VOSKOWN=      0    Vosko Wilk Nusair interpolation
   ROPT   =    0.00000   0.00000
 Ionic relaxation
   EDIFFG = 0.1E-01   stopping-criterion for IOM
   NSW    =     20    number of steps for IOM
   NBLOCK =      1;   KBLOCK =     20    inner block; outer block 
   IBRION =      2    ionic relax: 0-MD 1-quasi-New 2-CG
   NFREE  =      1    steps in history (QN), initial steepest desc. (CG)
   ISIF   =      3    stress and relaxation
   IWAVPR =     11    prediction:  0-non 1-charg 2-wave 3-comb
   ISYM   =      2    0-nonsym 1-usesym 2-fastsym
   LCORR  =      T    Harris-Foulkes like correction to forces

   POTIM  = 0.5000    time-step for ionic-motion
   TEIN   =    0.0    initial temperature
   TEBEG  =    0.0;   TEEND  =   0.0 temperature during run
   SMASS  =  -3.00    Nose mass-parameter (am)
   estimated Nose-frequenzy (Omega)   =  0.10E-29 period in steps =****** mass=  -0.152E-26a.u.
   SCALEE = 1.0000    scale energy and forces
   NPACO  =    256;   APACO  = 16.0  distance and # of slots for P.C.
   PSTRESS=    0.0 pullay stress

  Mass of Ions in am
   POMASS =  58.93 16.00
  Ionic Valenz
   ZVAL   =   9.00  6.00
  Atomic Wigner-Seitz radii
   RWIGS  =  -1.00 -1.00
  virtual crystal weights 
   VCA    =   1.00  1.00
   NELECT =     408.0000    total number of electrons
   NUPDOWN=      -1.0000    fix difference up-down

 DOS related values:
   EMIN   =  10.00;   EMAX   =-10.00  energy-range for DOS
   EFERMI =   0.00
   ISMEAR =     0;   SIGMA  =   0.10  broadening in eV -4-tet -1-fermi 0-gaus

 Electronic relaxation 2 (details)
   IALGO  =     38    algorithm
   LDIAG  =      T    sub-space diagonalisation (order eigenvalues)
   LSUBROT=      F    optimize rotation matrix (better conditioning)
   TURBO    =      0    0=normal 1=particle mesh
   IRESTART =      0    0=no restart 2=restart with 2 vectors
   NREBOOT  =      0    no. of reboots
   NMIN     =      0    reboot dimension
   EREF     =   0.00    reference energy to select bands
   IMIX   =      4    mixing-type and parameters
     AMIX     =   0.40;   BMIX     =  1.00
     AMIX_MAG =   1.60;   BMIX_MAG =  1.00
     AMIN     =   0.10
     WC   =   100.;   INIMIX=   1;  MIXPRE=   1;  MAXMIX= -45

 Intra band minimization:
   WEIMIN = 0.0010     energy-eigenvalue tresh-hold
   EBREAK =  0.10E-08  absolut break condition
   DEPER  =   0.30     relativ break condition  

   TIME   =   0.40     timestep for ELM

  volume/ion in A,a.u.               =       9.71        65.52
  Fermi-wavevector in a.u.,A,eV,Ry     =   1.487643  2.811238 30.110820  2.213083
  Thomas-Fermi vector in A             =   2.600778
 
 Write flags
   LWAVE        =      F    write WAVECAR
   LDOWNSAMPLE  =      F    k-point downsampling of WAVECAR
   LCHARG       =      F    write CHGCAR
   LVTOT        =      F    write LOCPOT, total local potential
   LVHAR        =      F    write LOCPOT, Hartree potential only
   LELF         =      F    write electronic localiz. function (ELF)
   LORBIT       =      0    0 simple, 1 ext, 2 COOP (PROOUT), +10 PAW based schemes


 Dipole corrections
   LMONO  =      F    monopole corrections only (constant potential shift)
   LDIPOL =      F    correct potential (dipole corrections)
   IDIPOL =      0    1-x, 2-y, 3-z, 4-all directions 
   EPSILON=  1.0000000 bulk dielectric constant

 Exchange correlation treatment:
   GGA     =    PE    GGA type
   LEXCH   =     8    internal setting for exchange type
   VOSKOWN=      0    Vosko Wilk Nusair interpolation
   LHFCALC =     F    Hartree Fock is set to
   LHFONE  =     F    Hartree Fock one center treatment
   AEXX    =    0.0000 exact exchange contribution

 Linear response parameters
   LEPSILON=     F    determine dielectric tensor
   LRPA    =     F    only Hartree local field effects (RPA)
   LNABLA  =     F    use nabla operator in PAW spheres
   LVEL    =     F    velocity operator in full k-point grid
   LINTERFAST=   F  fast interpolation
   KINTER  =     0    interpolate to denser k-point grid
   CSHIFT  =0.1000    complex shift for real part using Kramers Kronig
   OMEGAMAX=  -1.0    maximum frequency
   DEG_THRESHOLD= 0.2000000E-02 threshold for treating states as degnerate
   RTIME   =   -0.100 relaxation time in fs
  (WPLASMAI=    0.000 imaginary part of plasma frequency in eV, 0.658/RTIME)
   DFIELD  = 0.0000000 0.0000000 0.0000000 field for delta impulse in time
 
 Orbital magnetization related:
   ORBITALMAG=     F  switch on orbital magnetization
   LCHIMAG   =     F  perturbation theory with respect to B field
   DQ        =  0.001000  dq finite difference perturbation B field
   LLRAUG    =     F  two centre corrections for induced B field



--------------------------------------------------------------------------------------------------------


 conjugate gradient relaxation of ions
 charge density and potential will be updated during run
 non-spin polarized calculation
 Variant of blocked Davidson
 Davidson routine will perform the subspace rotation
 perform sub-space diagonalisation
    after iterative eigenvector-optimisation
 modified Broyden-mixing scheme, WC =      100.0
 initial mixing is a Kerker type mixing with AMIX =  0.4000 and BMIX =      1.0000
 Hartree-type preconditioning will be used
 using additional bands           40
 reciprocal scheme for non local part
 use partial core corrections
 calculate Harris-corrections to forces 
   (improved forces if not selfconsistent)
 use gradient corrections 
 use of overlap-Matrix (Vanderbilt PP)
 Gauss-broadening in eV      SIGMA  =   0.10


--------------------------------------------------------------------------------------------------------


  energy-cutoff  :      400.00
  volume of cell :      543.74
      direct lattice vectors                 reciprocal lattice vectors
     8.161989895  0.000000000  0.000000000     0.122519142 -0.000000000 -0.000000000
     0.000000000  8.161989895  0.000000000    -0.000000000  0.122519142 -0.000000000
     0.000000000  0.000000000  8.161989895    -0.000000000 -0.000000000  0.122519142

  length of vectors
     8.161989895  8.161989895  8.161989895     0.122519142  0.122519142  0.122519142


 
 k-points in units of 2pi/SCALE and weight: KPOINTS created by Atomic Simulation Env
   0.00000000  0.00000000  0.00000000       0.016
   0.03062979 -0.00000000 -0.00000000       0.094
   0.06125957 -0.00000000 -0.00000000       0.047
   0.03062979  0.03062979 -0.00000000       0.188
   0.06125957  0.03062979 -0.00000000       0.188
   0.06125957  0.06125957 -0.00000000       0.047
   0.03062979  0.03062979  0.03062979       0.125
   0.06125957  0.03062979  0.03062979       0.188
   0.06125957  0.06125957  0.03062979       0.094
   0.06125957  0.06125957  0.06125957       0.016
 
 k-points in reciprocal lattice and weights: KPOINTS created by Atomic Simulation Env
   0.00000000  0.00000000  0.00000000       0.016
   0.25000000  0.00000000  0.00000000       0.094
   0.50000000  0.00000000  0.00000000       0.047
   0.25000000  0.25000000  0.00000000       0.188
   0.50000000  0.25000000  0.00000000       0.188
   0.50000000  0.50000000  0.00000000       0.047
   0.25000000  0.25000000  0.25000000       0.125
   0.50000000  0.25000000  0.25000000       0.188
   0.50000000  0.50000000  0.25000000       0.094
   0.50000000  0.50000000  0.50000000       0.016
 
 position of ions in fractional coordinates (direct lattice) 
   0.62500000  0.62500000  0.62500000
   0.62500000  0.87500000  0.87500000
   0.37500000  0.87500000  0.12500000
   0.37500000  0.62500000  0.37500000
   0.12500000  0.37500000  0.87500000
   0.87500000  0.37500000  0.12500000
   0.87500000  0.12500000  0.37500000
   0.62500000  0.12500000  0.12500000
   0.87500000  0.87500000  0.62500000
   0.87500000  0.62500000  0.87500000
   0.12500000  0.87500000  0.37500000
   0.62500000  0.37500000  0.37500000
   0.37500000  0.12500000  0.87500000
   0.37500000  0.37500000  0.62500000
   0.12500000  0.62500000  0.12500000
   0.12500000  0.12500000  0.62500000
   0.00000000  0.00000000  0.00000000
   0.25000000  0.25000000  0.25000000
   0.00000000  0.50000000  0.50000000
   0.75000000  0.25000000  0.75000000
   0.50000000  0.00000000  0.50000000
   0.25000000  0.75000000  0.75000000
   0.50000000  0.50000000  0.00000000
   0.75000000  0.75000000  0.25000000
   0.38967858  0.38967858  0.38967858
   0.86032142  0.63967858  0.63967858
   0.61032142  0.11032142  0.88967858
   0.13967858  0.86032142  0.13967858
   0.38967858  0.11032142  0.11032142
   0.13967858  0.63967858  0.36032142
   0.61032142  0.38967858  0.61032142
   0.86032142  0.86032142  0.86032142
   0.88967858  0.61032142  0.11032142
   0.63967858  0.13967858  0.36032142
   0.11032142  0.88967858  0.61032142
   0.86032142  0.36032142  0.36032142
   0.11032142  0.11032142  0.38967858
   0.63967858  0.86032142  0.63967858
   0.36032142  0.63967858  0.13967858
   0.38967858  0.61032142  0.61032142
   0.11032142  0.38967858  0.11032142
   0.86032142  0.13967858  0.13967858
   0.11032142  0.61032142  0.88967858
   0.13967858  0.36032142  0.63967858
   0.38967858  0.88967858  0.88967858
   0.13967858  0.13967858  0.86032142
   0.61032142  0.61032142  0.38967858
   0.61032142  0.88967858  0.11032142
   0.88967858  0.11032142  0.61032142
   0.63967858  0.63967858  0.86032142
   0.63967858  0.36032142  0.13967858
   0.36032142  0.13967858  0.63967858
   0.88967858  0.38967858  0.88967858
   0.36032142  0.86032142  0.36032142
   0.36032142  0.36032142  0.86032142
   0.88967858  0.88967858  0.38967858
 
 position of ions in cartesian coordinates  (Angst):
   5.10124368  5.10124368  5.10124368
   5.10124368  7.14174116  7.14174116
   3.06074621  7.14174116  1.02024874
   3.06074621  5.10124368  3.06074621
   1.02024874  3.06074621  7.14174116
   7.14174116  3.06074621  1.02024874
   7.14174116  1.02024874  3.06074621
   5.10124368  1.02024874  1.02024874
   7.14174116  7.14174116  5.10124368
   7.14174116  5.10124368  7.14174116
   1.02024874  7.14174116  3.06074621
   5.10124368  3.06074621  3.06074621
   3.06074621  1.02024874  7.14174116
   3.06074621  3.06074621  5.10124368
   1.02024874  5.10124368  1.02024874
   1.02024874  1.02024874  5.10124368
   0.00000000  0.00000000  0.00000000
   2.04049747  2.04049747  2.04049747
   0.00000000  4.08099495  4.08099495
   6.12149242  2.04049747  6.12149242
   4.08099495  0.00000000  4.08099495
   2.04049747  6.12149242  6.12149242
   4.08099495  4.08099495  0.00000000
   6.12149242  6.12149242  2.04049747
   3.18055265  3.18055265  3.18055265
   7.02193471  5.22105013  5.22105013
   4.98143724  0.90044229  7.26154760
   1.14005518  7.02193471  1.14005518
   3.18055265  0.90044229  0.90044229
   1.14005518  5.22105013  2.94093977
   4.98143724  3.18055265  4.98143724
   7.02193471  7.02193471  7.02193471
   7.26154760  4.98143724  0.90044229
   5.22105013  1.14005518  2.94093977
   0.90044229  7.26154760  4.98143724
   7.02193471  2.94093977  2.94093977
   0.90044229  0.90044229  3.18055265
   5.22105013  7.02193471  5.22105013
   2.94093977  5.22105013  1.14005518
   3.18055265  4.98143724  4.98143724
   0.90044229  3.18055265  0.90044229
   7.02193471  1.14005518  1.14005518
   0.90044229  4.98143724  7.26154760
   1.14005518  2.94093977  5.22105013
   3.18055265  7.26154760  7.26154760
   1.14005518  1.14005518  7.02193471
   4.98143724  4.98143724  3.18055265
   4.98143724  7.26154760  0.90044229
   7.26154760  0.90044229  4.98143724
   5.22105013  5.22105013  7.02193471
   5.22105013  2.94093977  1.14005518
   2.94093977  1.14005518  5.22105013
   7.26154760  3.18055265  7.26154760
   2.94093977  7.02193471  2.94093977
   2.94093977  2.94093977  7.02193471
   7.26154760  7.26154760  3.18055265
 


--------------------------------------------------------------------------------------------------------


 k-point  1 :   0.0000 0.0000 0.0000  plane waves:    9843
 k-point  2 :   0.2500 0.0000 0.0000  plane waves:    9895
 k-point  3 :   0.5000 0.0000 0.0000  plane waves:    9890
 k-point  4 :   0.2500 0.2500 0.0000  plane waves:    9931
 k-point  5 :   0.5000 0.2500 0.0000  plane waves:    9876
 k-point  6 :   0.5000 0.5000 0.0000  plane waves:    9844
 k-point  7 :   0.2500 0.2500 0.2500  plane waves:    9849
 k-point  8 :   0.5000 0.2500 0.2500  plane waves:    9854
 k-point  9 :   0.5000 0.5000 0.2500  plane waves:    9868
 k-point 10 :   0.5000 0.5000 0.5000  plane waves:    9952

 maximum and minimum number of plane-waves per node :      2498     2433

 maximum number of plane-waves:      9952
 maximum index in each direction: 
   IXMAX=   13   IYMAX=   13   IZMAX=   13
   IXMIN=  -13   IYMIN=  -13   IZMIN=  -13


 parallel 3D FFT for wavefunctions:
    minimum data exchange during FFTs selected (reduces bandwidth)
 parallel 3D FFT for charge:
    minimum data exchange during FFTs selected (reduces bandwidth)


 total amount of memory used by VASP MPI-rank0    69647. kBytes
=======================================================================

   base      :      30000. kBytes
   nonl-proj :       9394. kBytes
   fftplans  :       1605. kBytes
   grid      :       2470. kBytes
   one-center:        217. kBytes
   wavefun   :      25961. kBytes
 
     INWAV:  cpu time    0.0000: real time    0.0000
 Broyden mixing: mesh for mixing (old mesh)
   NGX = 27   NGY = 27   NGZ = 27
  (NGX  = 80   NGY  = 80   NGZ  = 80)
  gives a total of  19683 points

 initial charge density was supplied:
 charge density of overlapping atoms calculated
 number of electron     408.0000000 magnetization 
 keeping initial charge density in first step


--------------------------------------------------------------------------------------------------------


 Maximum index for augmentation-charges          333 (set IRDMAX)


--------------------------------------------------------------------------------------------------------


 First call to EWALD:  gamma=   0.217
 Maximum number of real-space cells 3x 3x 3
 Maximum number of reciprocal cells 3x 3x 3

    FEWALD:  cpu time    0.0046: real time    0.0046


--------------------------------------- Iteration      1(   1)  ---------------------------------------


    POTLOK:  cpu time    0.0843: real time    0.1006
    SETDIJ:  cpu time    0.0152: real time    0.0153
     EDDAV:  cpu time   51.1093: real time   51.3990
       DOS:  cpu time    0.0034: real time    0.0034
    --------------------------------------------
      LOOP:  cpu time   51.2122: real time   51.5183

 eigenvalue-minimisations  :  4880
 total energy-change (2. order) : 0.4885489E+04  (-0.1525013E+05)
 number of electron     408.0000000 magnetization 
 augmentation part      408.0000000 magnetization 

 Free energy of the ion-electron system (eV)
  ---------------------------------------------------
  alpha Z        PSCENC =      1403.65259945
  Ewald energy   TEWEN  =    -27320.91956790
  -Hartree energ DENC   =     -8072.99859880
  -exchange      EXHF   =         0.00000000
  -V(xc)+E(xc)   XCENC  =      1280.92377947
  PAW double counting   =     28393.85397154   -29724.13042173
  entropy T*S    EENTRO =        -0.04474445
  eigenvalues    EBANDS =      5572.14443001
  atomic energy  EATOM  =     33353.00789155
  Solvation  Ediel_sol  =         0.00000000
  ---------------------------------------------------
  free energy    TOTEN  =      4885.48933913 eV

  energy without entropy =     4885.53408358  energy(sigma->0) =     4885.51171136


--------------------------------------------------------------------------------------------------------




--------------------------------------- Iteration      1(   2)  ---------------------------------------


     EDDAV:  cpu time   51.5124: real time   51.8093
       DOS:  cpu time    0.0031: real time    0.0031
    --------------------------------------------
      LOOP:  cpu time   51.5155: real time   51.8124

 eigenvalue-minimisations  :  4932
 total energy-change (2. order) :-0.4177018E+04  (-0.3932473E+04)
 number of electron     408.0000000 magnetization 
 augmentation part      408.0000000 magnetization 

 Free energy of the ion-electron system (eV)
  ---------------------------------------------------
  alpha Z        PSCENC =      1403.65259945
  Ewald energy   TEWEN  =    -27320.91956790
  -Hartree energ DENC   =     -8072.99859880
  -exchange      EXHF   =         0.00000000
  -V(xc)+E(xc)   XCENC  =      1280.92377947
  PAW double counting   =     28393.85397154   -29724.13042173
  entropy T*S    EENTRO =        -0.11041060
  eigenvalues    EBANDS =      1395.19210683
  atomic energy  EATOM  =     33353.00789155
  Solvation  Ediel_sol  =         0.00000000
  ---------------------------------------------------
  free energy    TOTEN  =       708.47134980 eV

  energy without entropy =      708.58176040  energy(sigma->0) =      708.52655510


--------------------------------------------------------------------------------------------------------




--------------------------------------- Iteration      1(   3)  ---------------------------------------


     EDDAV:  cpu time   57.1466: real time   57.4735
       DOS:  cpu time    0.0034: real time    0.0034
    --------------------------------------------
      LOOP:  cpu time   57.1500: real time   57.4769

 eigenvalue-minimisations  :  5584
 total energy-change (2. order) :-0.1027574E+04  (-0.9456740E+03)
 number of electron     408.0000000 magnetization 
 augmentation part      408.0000000 magnetization 

 Free energy of the ion-electron system (eV)
  ---------------------------------------------------
  alpha Z        PSCENC =      1403.65259945
  Ewald energy   TEWEN  =    -27320.91956790
  -Hartree energ DENC   =     -8072.99859880
  -exchange      EXHF   =         0.00000000
  -V(xc)+E(xc)   XCENC  =      1280.92377947
  PAW double counting   =     28393.85397154   -29724.13042173
  entropy T*S    EENTRO =        -0.26472324
  eigenvalues    EBANDS =       367.77261183
  atomic energy  EATOM  =     33353.00789155
  Solvation  Ediel_sol  =         0.00000000
  ---------------------------------------------------
  free energy    TOTEN  =      -319.10245784 eV

  energy without entropy =     -318.83773460  energy(sigma->0) =     -318.97009622


--------------------------------------------------------------------------------------------------------




--------------------------------------- Iteration      1(   4)  ---------------------------------------


     EDDAV:  cpu time   57.0804: real time   57.3988
       DOS:  cpu time    0.0035: real time    0.0035
    --------------------------------------------
      LOOP:  cpu time   57.0840: real time   57.4024

 eigenvalue-minimisations  :  5596
 total energy-change (2. order) :-0.1386442E+03  (-0.1258000E+03)
 number of electron     408.0000000 magnetization 
 augmentation part      408.0000000 magnetization 

 Free energy of the ion-electron system (eV)
  ---------------------------------------------------
  alpha Z        PSCENC =      1403.65259945
  Ewald energy   TEWEN  =    -27320.91956790
  -Hartree energ DENC   =     -8072.99859880
  -exchange      EXHF   =         0.00000000
  -V(xc)+E(xc)   XCENC  =      1280.92377947
  PAW double counting   =     28393.85397154   -29724.13042173
  entropy T*S    EENTRO =        -0.23236895
  eigenvalues    EBANDS =       229.09610192
  atomic energy  EATOM  =     33353.00789155
  Solvation  Ediel_sol  =         0.00000000
  ---------------------------------------------------
  free energy    TOTEN  =      -457.74661346 eV

  energy without entropy =     -457.51424451  energy(sigma->0) =     -457.63042899


--------------------------------------------------------------------------------------------------------




--------------------------------------- Iteration      1(   5)  ---------------------------------------


     EDDAV:  cpu time   76.4565: real time   76.8871
       DOS:  cpu time    0.0047: real time    0.0047
    CHARGE:  cpu time    0.5231: real time    0.5253
    MIXING:  cpu time    0.0020: real time    0.0020
    --------------------------------------------
      LOOP:  cpu time   76.9863: real time   77.4191

 eigenvalue-minimisations  :  7848
 total energy-change (2. order) :-0.9483458E+01  (-0.9118390E+01)
 number of electron     408.0001654 magnetization 
 augmentation part      131.3168842 magnetization 

 Broyden mixing:
  rms(total) = 0.89081E+01    rms(broyden)= 0.88980E+01
  rms(prec ) = 0.11441E+02
  weight for this iteration     100.00

 Free energy of the ion-electron system (eV)
  ---------------------------------------------------
  alpha Z        PSCENC =      1403.65259945
  Ewald energy   TEWEN  =    -27320.91956790
  -Hartree energ DENC   =     -8072.99859880
  -exchange      EXHF   =         0.00000000
  -V(xc)+E(xc)   XCENC  =      1280.92377947
  PAW double counting   =     28393.85397154   -29724.13042173
  entropy T*S    EENTRO =        -0.25919035
  eigenvalues    EBANDS =       219.63946520
  atomic energy  EATOM  =     33353.00789155
  Solvation  Ediel_sol  =         0.00000000
  ---------------------------------------------------
  free energy    TOTEN  =      -467.23007158 eV

  energy without entropy =     -466.97088123  energy(sigma->0) =     -467.10047640


--------------------------------------------------------------------------------------------------------




--------------------------------------- Iteration      1(   6)  ---------------------------------------


    POTLOK:  cpu time    0.0609: real time    0.0614
    SETDIJ:  cpu time    0.0151: real time    0.0152
     EDDAV:  cpu time   64.7633: real time   65.1234
       DOS:  cpu time    0.0050: real time    0.0051
    CHARGE:  cpu time    0.5118: real time    0.5140
    MIXING:  cpu time    0.0021: real time    0.0021
    --------------------------------------------
      LOOP:  cpu time   65.3583: real time   65.7212

 eigenvalue-minimisations  :  6508
 total energy-change (2. order) :-0.3675455E+01  (-0.1068755E+03)
 number of electron     408.0002970 magnetization 
 augmentation part      168.6363906 magnetization 

 Broyden mixing:
  rms(total) = 0.10822E+02    rms(broyden)= 0.10819E+02
  rms(prec ) = 0.14504E+02
  weight for this iteration     100.00

 eigenvalues of (default mixing * dielectric matrix)
  average eigenvalue GAMMA=   0.4219
  0.4219

 Free energy of the ion-electron system (eV)
  ---------------------------------------------------
  alpha Z        PSCENC =      1403.65259945
  Ewald energy   TEWEN  =    -27320.91956790
  -Hartree energ DENC   =     -7941.79832585
  -exchange      EXHF   =         0.00000000
  -V(xc)+E(xc)   XCENC  =      1288.80442642
  PAW double counting   =     31605.12064468   -32755.72291740
  entropy T*S    EENTRO =        -0.18287748
  eigenvalues    EBANDS =      -102.86739993
  atomic energy  EATOM  =     33353.00789155
  Solvation  Ediel_sol  =         0.00000000
  ---------------------------------------------------
  free energy    TOTEN  =      -470.90552646 eV

  energy without entropy =     -470.72264899  energy(sigma->0) =     -470.81408773


--------------------------------------------------------------------------------------------------------




--------------------------------------- Iteration      1(   7)  ---------------------------------------


    POTLOK:  cpu time    0.0601: real time    0.0607
    SETDIJ:  cpu time    0.0152: real time    0.0152
     EDDAV:  cpu time   66.7215: real time   67.0891
       DOS:  cpu time    0.0045: real time    0.0045
    CHARGE:  cpu time    0.5235: real time    0.5257
    MIXING:  cpu time    0.0023: real time    0.0023
    --------------------------------------------
      LOOP:  cpu time   67.3270: real time   67.6976

 eigenvalue-minimisations  :  6728
 total energy-change (2. order) : 0.8838511E+02  (-0.4055955E+02)
 number of electron     408.0002370 magnetization 
 augmentation part      138.7049536 magnetization 

 Broyden mixing:
  rms(total) = 0.64621E+01    rms(broyden)= 0.64606E+01
  rms(prec ) = 0.94350E+01
  weight for this iteration     100.00

 eigenvalues of (default mixing * dielectric matrix)
  average eigenvalue GAMMA=   0.4903
  0.3223  0.6583

 Free energy of the ion-electron system (eV)
  ---------------------------------------------------
  alpha Z        PSCENC =      1403.65259945
  Ewald energy   TEWEN  =    -27320.91956790
  -Hartree energ DENC   =     -8080.97220875
  -exchange      EXHF   =         0.00000000
  -V(xc)+E(xc)   XCENC  =      1289.14368851
  PAW double counting   =     33017.61670925   -34337.50050210
  entropy T*S    EENTRO =        -0.30808114
  eigenvalues    EBANDS =       293.75905362
  atomic energy  EATOM  =     33353.00789155
  Solvation  Ediel_sol  =         0.00000000
  ---------------------------------------------------
  free energy    TOTEN  =      -382.52041752 eV

  energy without entropy =     -382.21233638  energy(sigma->0) =     -382.36637695


--------------------------------------------------------------------------------------------------------




--------------------------------------- Iteration      1(   8)  ---------------------------------------


    POTLOK:  cpu time    0.0602: real time    0.0608
    SETDIJ:  cpu time    0.0151: real time    0.0152
     EDDAV:  cpu time   73.6549: real time   74.0638
       DOS:  cpu time    0.0049: real time    0.0049
    CHARGE:  cpu time    0.5158: real time    0.5180
    MIXING:  cpu time    0.0025: real time    0.0025
    --------------------------------------------
      LOOP:  cpu time   74.2534: real time   74.6653

 eigenvalue-minimisations  :  7548
 total energy-change (2. order) :-0.3949495E+02  (-0.1611457E+02)
 number of electron     408.0001852 magnetization 
 augmentation part      138.7609484 magnetization 

 Broyden mixing:
  rms(total) = 0.84252E+01    rms(broyden)= 0.84238E+01
  rms(prec ) = 0.13443E+02
  weight for this iteration     100.00

 eigenvalues of (default mixing * dielectric matrix)
  average eigenvalue GAMMA=   0.9631
  2.4209  0.3747  0.0937

 Free energy of the ion-electron system (eV)
  ---------------------------------------------------
  alpha Z        PSCENC =      1403.65259945
  Ewald energy   TEWEN  =    -27320.91956790
  -Hartree energ DENC   =     -8085.48610278
  -exchange      EXHF   =         0.00000000
  -V(xc)+E(xc)   XCENC  =      1287.76266472
  PAW double counting   =     33664.02033449   -34992.80228125
  entropy T*S    EENTRO =        -0.79469199
  eigenvalues    EBANDS =       269.54378275
  atomic energy  EATOM  =     33353.00789155
  Solvation  Ediel_sol  =         0.00000000
  ---------------------------------------------------
  free energy    TOTEN  =      -422.01537096 eV

  energy without entropy =     -421.22067896  energy(sigma->0) =     -421.61802496


--------------------------------------------------------------------------------------------------------




--------------------------------------- Iteration      1(   9)  ---------------------------------------


    POTLOK:  cpu time    0.0602: real time    0.0608
    SETDIJ:  cpu time    0.0151: real time    0.0152
     EDDAV:  cpu time   79.1854: real time   79.6237
       DOS:  cpu time    0.0048: real time    0.0049
    CHARGE:  cpu time    0.5161: real time    0.5184
    MIXING:  cpu time    0.0025: real time    0.0026
    --------------------------------------------
      LOOP:  cpu time   79.7843: real time   80.2255

 eigenvalue-minimisations  :  8180
 total energy-change (2. order) : 0.4342100E+02  (-0.5484608E+01)
 number of electron     408.0002297 magnetization 
 augmentation part      146.6400409 magnetization 

 Broyden mixing:
  rms(total) = 0.15164E+01    rms(broyden)= 0.15132E+01
  rms(prec ) = 0.21476E+01
  weight for this iteration     100.00

 eigenvalues of (default mixing * dielectric matrix)
  average eigenvalue GAMMA=   0.8225
  1.9535  0.3619  0.0932  0.8813

 Free energy of the ion-electron system (eV)
  ---------------------------------------------------
  alpha Z        PSCENC =      1403.65259945
  Ewald energy   TEWEN  =    -27320.91956790
  -Hartree energ DENC   =     -7962.19938639
  -exchange      EXHF   =         0.00000000
  -V(xc)+E(xc)   XCENC  =      1284.46255449
  PAW double counting   =     38192.63297297   -39527.61798766
  entropy T*S    EENTRO =        -0.24607004
  eigenvalues    EBANDS =       198.63262075
  atomic energy  EATOM  =     33353.00789155
  Solvation  Ediel_sol  =         0.00000000
  ---------------------------------------------------
  free energy    TOTEN  =      -378.59437280 eV

  energy without entropy =     -378.34830275  energy(sigma->0) =     -378.47133778


--------------------------------------------------------------------------------------------------------




--------------------------------------- Iteration      1(  10)  ---------------------------------------


    POTLOK:  cpu time    0.0596: real time    0.0615
    SETDIJ:  cpu time    0.0153: real time    0.0153
     EDDAV:  cpu time   67.5828: real time   67.9569
       DOS:  cpu time    0.0050: real time    0.0050
    CHARGE:  cpu time    0.5159: real time    0.5180
    MIXING:  cpu time    0.0028: real time    0.0028
    --------------------------------------------
      LOOP:  cpu time   68.1813: real time   68.5596

 eigenvalue-minimisations  :  6836
 total energy-change (2. order) : 0.2056460E+01  (-0.1133971E+01)
 number of electron     408.0002211 magnetization 
 augmentation part      143.8763432 magnetization 

 Broyden mixing:
  rms(total) = 0.36973E+00    rms(broyden)= 0.36831E+00
  rms(prec ) = 0.43530E+00
  weight for this iteration     100.00

 eigenvalues of (default mixing * dielectric matrix)
  average eigenvalue GAMMA=   0.8814
  1.9347  0.0933  0.3619  1.0087  1.0087

 Free energy of the ion-electron system (eV)
  ---------------------------------------------------
  alpha Z        PSCENC =      1403.65259945
  Ewald energy   TEWEN  =    -27320.91956790
  -Hartree energ DENC   =     -8005.53087948
  -exchange      EXHF   =         0.00000000
  -V(xc)+E(xc)   XCENC  =      1286.34406443
  PAW double counting   =     37679.00016544   -39026.06995207
  entropy T*S    EENTRO =        -0.29731899
  eigenvalues    EBANDS =       254.27508438
  atomic energy  EATOM  =     33353.00789155
  Solvation  Ediel_sol  =         0.00000000
  ---------------------------------------------------
  free energy    TOTEN  =      -376.53791319 eV

  energy without entropy =     -376.24059420  energy(sigma->0) =     -376.38925369


--------------------------------------------------------------------------------------------------------




--------------------------------------- Iteration      1(  11)  ---------------------------------------


    POTLOK:  cpu time    0.0601: real time    0.0607
    SETDIJ:  cpu time    0.0151: real time    0.0152
     EDDAV:  cpu time   70.2547: real time   70.6398
       DOS:  cpu time    0.0050: real time    0.0050
    CHARGE:  cpu time    0.5169: real time    0.5191
    MIXING:  cpu time    0.0029: real time    0.0030
    --------------------------------------------
      LOOP:  cpu time   70.8548: real time   71.2427

 eigenvalue-minimisations  :  7140
 total energy-change (2. order) :-0.1571459E+00  (-0.1490989E+00)
 number of electron     408.0002221 magnetization 
 augmentation part      143.5641323 magnetization 

 Broyden mixing:
  rms(total) = 0.29749E+00    rms(broyden)= 0.29731E+00
  rms(prec ) = 0.41607E+00
  weight for this iteration     100.00

 eigenvalues of (default mixing * dielectric matrix)
  average eigenvalue GAMMA=   0.9905
  2.0295  1.3269  1.3269  0.0933  0.3625  0.8040

 Free energy of the ion-electron system (eV)
  ---------------------------------------------------
  alpha Z        PSCENC =      1403.65259945
  Ewald energy   TEWEN  =    -27320.91956790
  -Hartree energ DENC   =     -8009.43446749
  -exchange      EXHF   =         0.00000000
  -V(xc)+E(xc)   XCENC  =      1286.58182221
  PAW double counting   =     37788.52877631   -39135.64607166
  entropy T*S    EENTRO =        -0.30291930
  eigenvalues    EBANDS =       257.83687774
  atomic energy  EATOM  =     33353.00789155
  Solvation  Ediel_sol  =         0.00000000
  ---------------------------------------------------
  free energy    TOTEN  =      -376.69505910 eV

  energy without entropy =     -376.39213979  energy(sigma->0) =     -376.54359945


--------------------------------------------------------------------------------------------------------




--------------------------------------- Iteration      1(  12)  ---------------------------------------


    POTLOK:  cpu time    0.0598: real time    0.0604
    SETDIJ:  cpu time    0.0152: real time    0.0153
     EDDAV:  cpu time   72.9179: real time   73.3185
       DOS:  cpu time    0.0046: real time    0.0046
    CHARGE:  cpu time    0.5178: real time    0.5200
    MIXING:  cpu time    0.0031: real time    0.0031
    --------------------------------------------
      LOOP:  cpu time   73.5185: real time   73.9220

 eigenvalue-minimisations  :  7448
 total energy-change (2. order) :-0.1088201E-01  (-0.3167243E-01)
 number of electron     408.0002217 magnetization 
 augmentation part      143.9034029 magnetization 

 Broyden mixing:
  rms(total) = 0.24885E+00    rms(broyden)= 0.24880E+00
  rms(prec ) = 0.34436E+00
  weight for this iteration     100.00

 eigenvalues of (default mixing * dielectric matrix)
  average eigenvalue GAMMA=   1.0054
  2.0134  2.0134  0.0933  0.3626  0.9377  0.8086  0.8086

 Free energy of the ion-electron system (eV)
  ---------------------------------------------------
  alpha Z        PSCENC =      1403.65259945
  Ewald energy   TEWEN  =    -27320.91956790
  -Hartree energ DENC   =     -8018.80457113
  -exchange      EXHF   =         0.00000000
  -V(xc)+E(xc)   XCENC  =      1287.28666649
  PAW double counting   =     37891.49822228   -39236.17237576
  entropy T*S    EENTRO =        -0.29214624
  eigenvalues    EBANDS =       264.03734015
  atomic energy  EATOM  =     33353.00789155
  Solvation  Ediel_sol  =         0.00000000
  ---------------------------------------------------
  free energy    TOTEN  =      -376.70594111 eV

  energy without entropy =     -376.41379487  energy(sigma->0) =     -376.55986799


--------------------------------------------------------------------------------------------------------




--------------------------------------- Iteration      1(  13)  ---------------------------------------


    POTLOK:  cpu time    0.0602: real time    0.0608
    SETDIJ:  cpu time    0.0152: real time    0.0152
     EDDAV:  cpu time   77.9232: real time   78.3534
       DOS:  cpu time    0.0049: real time    0.0049
    CHARGE:  cpu time    0.5150: real time    0.5172
    MIXING:  cpu time    0.0033: real time    0.0033
    --------------------------------------------
      LOOP:  cpu time   78.5218: real time   78.9548

 eigenvalue-minimisations  :  8032
 total energy-change (2. order) : 0.9457023E-02  (-0.4892220E-02)
 number of electron     408.0002218 magnetization 
 augmentation part      143.7248781 magnetization 

 Broyden mixing:
  rms(total) = 0.45779E-01    rms(broyden)= 0.45681E-01
  rms(prec ) = 0.54522E-01
  weight for this iteration     100.00

 eigenvalues of (default mixing * dielectric matrix)
  average eigenvalue GAMMA=   1.1463
  2.9489  1.9461  0.0933  0.3626  1.0798  1.0798  0.8861  0.7739

 Free energy of the ion-electron system (eV)
  ---------------------------------------------------
  alpha Z        PSCENC =      1403.65259945
  Ewald energy   TEWEN  =    -27320.91956790
  -Hartree energ DENC   =     -8022.07432594
  -exchange      EXHF   =         0.00000000
  -V(xc)+E(xc)   XCENC  =      1287.38628312
  PAW double counting   =     37824.64159567   -39167.98217199
  entropy T*S    EENTRO =        -0.29554800
  eigenvalues    EBANDS =       265.88675995
  atomic energy  EATOM  =     33353.00789155
  Solvation  Ediel_sol  =         0.00000000
  ---------------------------------------------------
  free energy    TOTEN  =      -376.69648409 eV

  energy without entropy =     -376.40093608  energy(sigma->0) =     -376.54871009


--------------------------------------------------------------------------------------------------------




--------------------------------------- Iteration      1(  14)  ---------------------------------------


    POTLOK:  cpu time    0.0597: real time    0.0608
    SETDIJ:  cpu time    0.0152: real time    0.0153
     EDDAV:  cpu time   74.5018: real time   74.9122
       DOS:  cpu time    0.0047: real time    0.0047
    CHARGE:  cpu time    0.5146: real time    0.5167
    MIXING:  cpu time    0.0035: real time    0.0035
    --------------------------------------------
      LOOP:  cpu time   75.0995: real time   75.5132

 eigenvalue-minimisations  :  7632
 total energy-change (2. order) :-0.9850345E-03  (-0.9118464E-03)
 number of electron     408.0002222 magnetization 
 augmentation part      143.7815712 magnetization 

 Broyden mixing:
  rms(total) = 0.46308E-01    rms(broyden)= 0.46298E-01
  rms(prec ) = 0.76964E-01
  weight for this iteration     100.00

 eigenvalues of (default mixing * dielectric matrix)
  average eigenvalue GAMMA=   1.1226
  2.3233  2.3233  0.0933  1.2897  1.2897  0.3626  0.8201  0.8005  0.8005

 Free energy of the ion-electron system (eV)
  ---------------------------------------------------
  alpha Z        PSCENC =      1403.65259945
  Ewald energy   TEWEN  =    -27320.91956790
  -Hartree energ DENC   =     -8022.81847229
  -exchange      EXHF   =         0.00000000
  -V(xc)+E(xc)   XCENC  =      1287.45335857
  PAW double counting   =     37925.64190896   -39269.06141092
  entropy T*S    EENTRO =        -0.29564283
  eigenvalues    EBANDS =       266.64186630
  atomic energy  EATOM  =     33353.00789155
  Solvation  Ediel_sol  =         0.00000000
  ---------------------------------------------------
  free energy    TOTEN  =      -376.69746912 eV

  energy without entropy =     -376.40182629  energy(sigma->0) =     -376.54964771


--------------------------------------------------------------------------------------------------------




--------------------------------------- Iteration      1(  15)  ---------------------------------------


    POTLOK:  cpu time    0.0604: real time    0.0609
    SETDIJ:  cpu time    0.0152: real time    0.0152
     EDDAV:  cpu time   63.6525: real time   64.0043
       DOS:  cpu time    0.0048: real time    0.0048
    CHARGE:  cpu time    0.5147: real time    0.5170
    MIXING:  cpu time    0.0038: real time    0.0038
    --------------------------------------------
      LOOP:  cpu time   64.2514: real time   64.6061

 eigenvalue-minimisations  :  6372
 total energy-change (2. order) : 0.5387944E-03  (-0.1614951E-03)
 number of electron     408.0002219 magnetization 
 augmentation part      143.7593860 magnetization 

 Broyden mixing:
  rms(total) = 0.12989E-01    rms(broyden)= 0.12983E-01
  rms(prec ) = 0.20415E-01
  weight for this iteration     100.00

 eigenvalues of (default mixing * dielectric matrix)
  average eigenvalue GAMMA=   1.1488
  2.6495  1.8962  1.8962  0.0933  0.3626  1.0937  1.0937  0.7728  0.8152  0.8152

 Free energy of the ion-electron system (eV)
  ---------------------------------------------------
  alpha Z        PSCENC =      1403.65259945
  Ewald energy   TEWEN  =    -27320.91956790
  -Hartree energ DENC   =     -8022.82949666
  -exchange      EXHF   =         0.00000000
  -V(xc)+E(xc)   XCENC  =      1287.43906794
  PAW double counting   =     37911.25745603   -39255.03100075
  entropy T*S    EENTRO =        -0.29557094
  eigenvalues    EBANDS =       267.02169096
  atomic energy  EATOM  =     33353.00789155
  Solvation  Ediel_sol  =         0.00000000
  ---------------------------------------------------
  free energy    TOTEN  =      -376.69693033 eV

  energy without entropy =     -376.40135939  energy(sigma->0) =     -376.54914486


--------------------------------------------------------------------------------------------------------




--------------------------------------- Iteration      1(  16)  ---------------------------------------


    POTLOK:  cpu time    0.0589: real time    0.0609
    SETDIJ:  cpu time    0.0151: real time    0.0152
     EDDAV:  cpu time   71.6111: real time   72.0041
       DOS:  cpu time    0.0051: real time    0.0051
    CHARGE:  cpu time    0.5163: real time    0.5185
    MIXING:  cpu time    0.0039: real time    0.0039
    --------------------------------------------
      LOOP:  cpu time   72.2104: real time   72.6077

 eigenvalue-minimisations  :  7284
 total energy-change (2. order) : 0.7459991E-04  (-0.2877262E-04)
 number of electron     408.0002219 magnetization 
 augmentation part      143.7744212 magnetization 

 Broyden mixing:
  rms(total) = 0.65518E-02    rms(broyden)= 0.65497E-02
  rms(prec ) = 0.84143E-02
  weight for this iteration     100.00

 eigenvalues of (default mixing * dielectric matrix)
  average eigenvalue GAMMA=   1.1958
  2.4736  2.4736  1.8417  0.0933  0.3626  1.4213  0.9717  0.9717  0.8477  0.8477
  0.8492

 Free energy of the ion-electron system (eV)
  ---------------------------------------------------
  alpha Z        PSCENC =      1403.65259945
  Ewald energy   TEWEN  =    -27320.91956790
  -Hartree energ DENC   =     -8022.61225032
  -exchange      EXHF   =         0.00000000
  -V(xc)+E(xc)   XCENC  =      1287.42980268
  PAW double counting   =     37920.67745765   -39264.57101510
  entropy T*S    EENTRO =        -0.29528160
  eigenvalues    EBANDS =       266.93350786
  atomic energy  EATOM  =     33353.00789155
  Solvation  Ediel_sol  =         0.00000000
  ---------------------------------------------------
  free energy    TOTEN  =      -376.69685573 eV

  energy without entropy =     -376.40157413  energy(sigma->0) =     -376.54921493


--------------------------------------------------------------------------------------------------------




--------------------------------------- Iteration      1(  17)  ---------------------------------------


    POTLOK:  cpu time    0.0595: real time    0.0605
    SETDIJ:  cpu time    0.0150: real time    0.0151
     EDDAV:  cpu time   59.0430: real time   59.3689
       DOS:  cpu time    0.0047: real time    0.0047
    CHARGE:  cpu time    0.5156: real time    0.5178
    MIXING:  cpu time    0.0041: real time    0.0042
    --------------------------------------------
      LOOP:  cpu time   59.6419: real time   59.9712

 eigenvalue-minimisations  :  5820
 total energy-change (2. order) :-0.6468319E-05  (-0.1015404E-04)
 number of electron     408.0002219 magnetization 
 augmentation part      143.7730248 magnetization 

 Broyden mixing:
  rms(total) = 0.10790E-02    rms(broyden)= 0.10754E-02
  rms(prec ) = 0.14132E-02
  weight for this iteration     100.00

 eigenvalues of (default mixing * dielectric matrix)
  average eigenvalue GAMMA=   1.1978
  2.6784  2.1634  1.7752  1.7752  0.0933  0.3626  1.1528  1.1528  0.8138  0.8138
  0.7964  0.7964

 Free energy of the ion-electron system (eV)
  ---------------------------------------------------
  alpha Z        PSCENC =      1403.65259945
  Ewald energy   TEWEN  =    -27320.91956790
  -Hartree energ DENC   =     -8022.70914506
  -exchange      EXHF   =         0.00000000
  -V(xc)+E(xc)   XCENC  =      1287.43249906
  PAW double counting   =     37916.00520525   -39259.86858331
  entropy T*S    EENTRO =        -0.29521857
  eigenvalues    EBANDS =       266.99745733
  atomic energy  EATOM  =     33353.00789155
  Solvation  Ediel_sol  =         0.00000000
  ---------------------------------------------------
  free energy    TOTEN  =      -376.69686220 eV

  energy without entropy =     -376.40164363  energy(sigma->0) =     -376.54925291


--------------------------------------------------------------------------------------------------------




--------------------------------------- Iteration      1(  18)  ---------------------------------------


    POTLOK:  cpu time    0.0598: real time    0.0607
    SETDIJ:  cpu time    0.0152: real time    0.0152
     EDDAV:  cpu time   55.4243: real time   55.7323
       DOS:  cpu time    0.0051: real time    0.0051
    CHARGE:  cpu time    0.5161: real time    0.5183
    MIXING:  cpu time    0.0043: real time    0.0044
    --------------------------------------------
      LOOP:  cpu time   56.0248: real time   56.3360

 eigenvalue-minimisations  :  5392
 total energy-change (2. order) : 0.7681738E-06  (-0.1224938E-05)
 number of electron     408.0002219 magnetization 
 augmentation part      143.7747325 magnetization 

 Broyden mixing:
  rms(total) = 0.13534E-02    rms(broyden)= 0.13534E-02
  rms(prec ) = 0.18390E-02
  weight for this iteration     100.00

 eigenvalues of (default mixing * dielectric matrix)
  average eigenvalue GAMMA=   1.2986
  2.6311  2.4738  2.4738  2.2253  0.0933  0.3626  1.2020  1.2020  0.8561  0.8561
  0.8934  0.8059  0.8059

 Free energy of the ion-electron system (eV)
  ---------------------------------------------------
  alpha Z        PSCENC =      1403.65259945
  Ewald energy   TEWEN  =    -27320.91956790
  -Hartree energ DENC   =     -8022.69630819
  -exchange      EXHF   =         0.00000000
  -V(xc)+E(xc)   XCENC  =      1287.43210337
  PAW double counting   =     37915.75015294   -39259.57395833
  entropy T*S    EENTRO =        -0.29522085
  eigenvalues    EBANDS =       266.94544653
  atomic energy  EATOM  =     33353.00789155
  Solvation  Ediel_sol  =         0.00000000
  ---------------------------------------------------
  free energy    TOTEN  =      -376.69686143 eV

  energy without entropy =     -376.40164058  energy(sigma->0) =     -376.54925100


--------------------------------------------------------------------------------------------------------




--------------------------------------- Iteration      1(  19)  ---------------------------------------


    POTLOK:  cpu time    0.0593: real time    0.0604
    SETDIJ:  cpu time    0.0151: real time    0.0152
     EDDAV:  cpu time   45.8983: real time   46.1534
       DOS:  cpu time    0.0038: real time    0.0038
    --------------------------------------------
      LOOP:  cpu time   45.9764: real time   46.2326

 eigenvalue-minimisations  :  4276
 total energy-change (2. order) :-0.5268012E-06  (-0.4228284E-06)
 number of electron     408.0002219 magnetization 
 augmentation part      143.7747325 magnetization 

 Free energy of the ion-electron system (eV)
  ---------------------------------------------------
  alpha Z        PSCENC =      1403.65259945
  Ewald energy   TEWEN  =    -27320.91956790
  -Hartree energ DENC   =     -8022.70108153
  -exchange      EXHF   =         0.00000000
  -V(xc)+E(xc)   XCENC  =      1287.43247484
  PAW double counting   =     37915.37416687   -39259.18999720
  entropy T*S    EENTRO =        -0.29521996
  eigenvalues    EBANDS =       266.94187192
  atomic energy  EATOM  =     33353.00789155
  Solvation  Ediel_sol  =         0.00000000
  ---------------------------------------------------
  free energy    TOTEN  =      -376.69686196 eV

  energy without entropy =     -376.40164200  energy(sigma->0) =     -376.54925198


--------------------------------------------------------------------------------------------------------




 average (electrostatic) potential at core
  the test charge radii are     1.0452  0.7215
  (the norm of the test charge is              1.0000)
       1 -82.3800       2 -82.3800       3 -82.3800       4 -82.3800       5 -82.3800
       6 -82.3800       7 -82.3800       8 -82.3800       9 -82.3800      10 -82.3800
      11 -82.3800      12 -82.3800      13 -82.3800      14 -82.3800      15 -82.3800
      16 -82.3800      17 -81.8425      18 -81.8425      19 -81.8425      20 -81.8425
      21 -81.8425      22 -81.8425      23 -81.8425      24 -81.8425      25 -70.1003
      26 -70.1003      27 -70.1003      28 -70.1003      29 -70.1003      30 -70.1003
      31 -70.1003      32 -70.1003      33 -70.1003      34 -70.1003      35 -70.1003
      36 -70.1003      37 -70.1003      38 -70.1003      39 -70.1003      40 -70.1003
      41 -70.1003      42 -70.1003      43 -70.1003      44 -70.1003      45 -70.1003
      46 -70.1003      47 -70.1003      48 -70.1003      49 -70.1003      50 -70.1003
      51 -70.1003      52 -70.1003      53 -70.1003      54 -70.1003      55 -70.1003
      56 -70.1003
 
 
 
 E-fermi :   6.5748     XC(G=0): -11.9016     alpha+bet :-12.8970


 k-point     1 :       0.0000    0.0000    0.0000
  band No.  band energies     occupation 
      1     -14.1414      2.00000
      2     -13.4553      2.00000
      3     -13.4553      2.00000
      4     -13.4553      2.00000
      5     -13.4553      2.00000
      6     -13.4553      2.00000
      7     -13.4553      2.00000
      8     -12.8276      2.00000
      9     -12.5709      2.00000
     10     -12.5709      2.00000
     11     -12.5709      2.00000
     12     -12.5709      2.00000
     13     -12.5709      2.00000
     14     -12.5709      2.00000
     15     -12.5535      2.00000
     16     -12.5535      2.00000
     17     -12.5535      2.00000
     18     -12.5535      2.00000
     19     -12.5535      2.00000
     20     -12.5535      2.00000
     21     -12.4749      2.00000
     22     -12.4749      2.00000
     23     -12.4749      2.00000
     24     -12.4198      2.00000
     25     -12.4198      2.00000
     26     -12.4198      2.00000
     27     -12.3373      2.00000
     28     -12.3373      2.00000
     29     -12.3373      2.00000
     30     -12.3373      2.00000
     31     -12.3373      2.00000
     32     -12.3373      2.00000
     33      -1.8350      2.00000
     34      -0.9693      2.00000
     35      -0.9693      2.00000
     36      -0.9693      2.00000
     37      -0.6857      2.00000
     38      -0.6857      2.00000
     39      -0.6857      2.00000
     40      -0.6857      2.00000
     41      -0.6857      2.00000
     42      -0.6857      2.00000
     43      -0.3982      2.00000
     44      -0.2548      2.00000
     45      -0.2548      2.00000
     46      -0.2548      2.00000
     47      -0.2548      2.00000
     48      -0.2548      2.00000
     49      -0.2548      2.00000
     50      -0.0341      2.00000
     51      -0.0341      2.00000
     52      -0.0341      2.00000
     53      -0.0341      2.00000
     54      -0.0341      2.00000
     55      -0.0341      2.00000
     56       0.0175      2.00000
     57       0.0175      2.00000
     58       0.6266      2.00000
     59       0.6266      2.00000
     60       0.6359      2.00000
     61       0.6359      2.00000
     62       0.6359      2.00000
     63       0.6359      2.00000
     64       0.6359      2.00000
     65       0.6359      2.00000
     66       0.6716      2.00000
     67       0.6716      2.00000
     68       0.6716      2.00000
     69       0.6716      2.00000
     70       0.6716      2.00000
     71       0.6716      2.00000
     72       0.9130      2.00000
     73       0.9130      2.00000
     74       0.9130      2.00000
     75       0.9130      2.00000
     76       0.9130      2.00000
     77       0.9130      2.00000
     78       1.0648      2.00000
     79       1.0648      2.00000
     80       1.0648      2.00000
     81       1.0648      2.00000
     82       1.0648      2.00000
     83       1.0648      2.00000
     84       1.3108      2.00000
     85       1.3108      2.00000
     86       1.3108      2.00000
     87       1.3670      2.00000
     88       1.3670      2.00000
     89       1.3670      2.00000
     90       1.3670      2.00000
     91       1.3670      2.00000
     92       1.3670      2.00000
     93       1.3734      2.00000
     94       1.3734      2.00000
     95       1.3734      2.00000
     96       1.6887      2.00000
     97       1.6887      2.00000
     98       1.6887      2.00000
     99       1.6887      2.00000
    100       1.6887      2.00000
    101       1.6887      2.00000
    102       1.8572      2.00000
    103       1.8572      2.00000
    104       1.8572      2.00000
    105       2.0559      2.00000
    106       2.0559      2.00000
    107       2.0559      2.00000
    108       2.0559      2.00000
    109       2.0559      2.00000
    110       2.0559      2.00000
    111       2.3142      2.00000
    112       2.3142      2.00000
    113       2.3142      2.00000
    114       2.3142      2.00000
    115       2.3142      2.00000
    116       2.3142      2.00000
    117       2.8113      2.00000
    118       2.8113      2.00000
    119       2.8113      2.00000
    120       3.1958      2.00000
    121       3.1958      2.00000
    122       3.1958      2.00000
    123       3.3132      2.00000
    124       3.3132      2.00000
    125       3.3132      2.00000
    126       3.3132      2.00000
[...]
 total augmentation occupancy for first ion, spin component:           1
  5.960  -0.090  -0.578  -0.090   0.000  -3.396   0.034   0.541   0.034  -0.000  -0.294   0.092   0.000   0.000  -0.000  -0.000
 -0.090   5.960   0.289  -0.090  -0.500   0.034  -3.396  -0.270   0.034   0.468  -0.294   0.092   0.000  -0.000  -0.000  -0.000
 -0.578   0.289   5.265   0.289  -0.000   0.540  -0.270  -5.605  -0.270   0.000  -0.000   0.000   0.000  -0.000   0.000   0.000
 -0.090  -0.090   0.289   5.960   0.500   0.034   0.034  -0.270  -3.396  -0.468  -0.294   0.092  -0.000  -0.000   0.000  -0.000
  0.000  -0.500  -0.000   0.500   5.265  -0.000   0.467   0.000  -0.467  -5.605   0.000  -0.000   0.000   0.000   0.000   0.000
 -3.396   0.034   0.540   0.034  -0.000   2.764   0.009  -0.522   0.009   0.000   0.294  -0.090  -0.000  -0.000  -0.000  -0.000
  0.034  -3.396  -0.270   0.034   0.467   0.009   2.764   0.261   0.009  -0.452   0.294  -0.090   0.000   0.000  -0.000   0.000
  0.541  -0.270  -5.605  -0.270   0.000  -0.522   0.261   6.911   0.261  -0.000   0.000  -0.000   0.000  -0.000  -0.000   0.000
  0.034   0.034  -0.270  -3.396  -0.467   0.009   0.009   0.261   2.764   0.452   0.294  -0.090  -0.000   0.000  -0.000   0.000
 -0.000   0.468   0.000  -0.468  -5.605   0.000  -0.452  -0.000   0.452   6.911  -0.000   0.000   0.000  -0.000   0.000   0.000
 -0.294  -0.294  -0.000  -0.294   0.000   0.294   0.294   0.000   0.294  -0.000   2.781  -0.590   0.000   0.000   0.000   0.000
  0.092   0.092   0.000   0.092  -0.000  -0.090  -0.090  -0.000  -0.090   0.000  -0.590   0.152   0.000   0.000   0.000   0.000
  0.000   0.000   0.000  -0.000  -0.000  -0.000   0.000   0.000  -0.000  -0.000   0.000   0.000   0.445   0.021   0.021  -0.076
  0.000  -0.000   0.000  -0.000   0.000  -0.000   0.000  -0.000   0.000  -0.000   0.000   0.000   0.021   0.445   0.021  -0.005
 -0.000  -0.000  -0.000   0.000   0.000  -0.000  -0.000  -0.000  -0.000   0.000   0.000   0.000   0.021   0.021   0.445  -0.005
 -0.000  -0.000   0.000  -0.000   0.000  -0.000   0.000   0.000   0.000   0.000   0.000   0.000  -0.076  -0.005  -0.005   0.016
 -0.000  -0.000  -0.000   0.000  -0.000   0.000   0.000   0.000   0.000  -0.000   0.000   0.000  -0.005  -0.076  -0.005   0.001
  0.000  -0.000   0.000  -0.000  -0.000   0.000   0.000  -0.000   0.000   0.000   0.000   0.000  -0.005  -0.005  -0.076   0.001


------------------------ aborting loop because EDIFF is reached ----------------------------------------


    CHARGE:  cpu time    0.5161: real time    0.5182
    FORLOC:  cpu time    0.0187: real time    0.0187
    FORNL :  cpu time   17.4516: real time   17.5061
    STRESS:  cpu time   22.7580: real time   22.8422
    FORCOR:  cpu time    0.0747: real time    0.0751
    FORHAR:  cpu time    0.0332: real time    0.0333
    MIXING:  cpu time    0.0037: real time    0.0037
    OFIELD:  cpu time    0.0001: real time    0.0001

  FORCE on cell =-STRESS in cart. coord.  units (eV):
  Direction    XX          YY          ZZ          XY          YZ          ZX
  --------------------------------------------------------------------------------------
  Alpha Z  1497.81607  1497.81607  1497.81607
  Ewald   -9421.48358 -9421.48358 -9421.48358    -0.00001    -0.00001    -0.00001
  Hartree  2476.09796  2476.09796  2476.09796    -0.00000    -0.00000    -0.00000
  E(xc)   -2059.59515 -2059.59515 -2059.59515     0.00000     0.00000     0.00000
  Local   -1579.78145 -1579.78145 -1579.78145     0.00001     0.00001     0.00001
  n-local  -890.08172  -888.19229  -887.31992     0.16418     0.07862     0.01858
  augment  3952.30859  3952.30859  3952.30859    -0.00000    -0.00000    -0.00000
  Kinetic  6021.69149  6023.59769  6024.17010     1.84651     2.50342     1.13131
  Fock        0.00000     0.00000     0.00000     0.00000     0.00000     0.00000
  -------------------------------------------------------------------------------------
  Total      -0.01579    -0.01579    -0.01579    -0.00000    -0.00000     0.00000
  in kB      -0.04964    -0.04964    -0.04964    -0.00000    -0.00000     0.00000
  external pressure =       -0.05 kB  Pullay stress =        0.00 kB


 VOLUME and BASIS-vectors are now :
 -----------------------------------------------------------------------------
  energy-cutoff  :      400.00
  volume of cell :      509.55
      direct lattice vectors                 reciprocal lattice vectors
     7.987234504  0.000000000  0.000000000     0.125199780 -0.000000000 -0.000000000
     0.000000000  7.987234504  0.000000000    -0.000000000  0.125199780 -0.000000000
     0.000000000  0.000000000  7.987234504    -0.000000000 -0.000000000  0.125199780

  length of vectors
     7.987234504  7.987234504  7.987234504     0.125199780  0.125199780  0.125199780


 FORCES acting on ions
    electron-ion (+dipol)            ewald-force                    non-local-force                 convergence-correction
 -----------------------------------------------------------------------------------------------
   -.201E-05 -.201E-05 -.201E-05   0.870E-06 0.870E-06 0.870E-06   -.112E-22 -.348E-24 -.108E-22   0.805E-10 0.800E-10 0.808E-10
   -.139E-05 0.125E-05 0.125E-05   0.512E-06 -.132E-05 -.132E-05   -.476E-22 0.330E-22 0.145E-22   0.151E-09 -.167E-10 -.159E-10
   -.568E-06 -.619E-07 0.101E-05   -.183E-06 0.619E-08 -.567E-07   -.128E-23 -.140E-22 0.248E-22   -.313E-10 -.324E-10 -.113E-10
   0.437E-07 -.687E-06 0.437E-07   -.696E-06 -.300E-06 -.696E-06   -.581E-23 0.621E-22 0.225E-22   -.107E-10 0.147E-09 -.105E-10
   0.101E-05 -.568E-06 -.619E-07   -.567E-07 -.183E-06 0.619E-08   -.552E-22 0.567E-22 0.447E-22   -.112E-10 -.315E-10 -.332E-10
   -.619E-07 -.568E-06 0.101E-05   0.619E-08 -.183E-06 -.567E-07   0.157E-22 -.331E-22 0.620E-23   -.330E-10 -.320E-10 -.114E-10
   -.619E-07 0.101E-05 -.568E-06   0.619E-08 -.567E-07 -.183E-06   -.347E-22 0.481E-22 -.744E-23   -.331E-10 -.114E-10 -.321E-10
   -.844E-07 0.999E-06 0.999E-06   -.966E-06 -.210E-06 -.211E-06   -.615E-23 0.128E-22 -.527E-23   0.117E-09 -.617E-10 -.610E-10
   0.125E-05 0.125E-05 -.139E-05   -.132E-05 -.132E-05 0.512E-06   -.107E-22 -.246E-22 0.240E-22   -.168E-10 -.169E-10 0.151E-09
   0.125E-05 -.139E-05 0.125E-05   -.132E-05 0.512E-06 -.132E-05   -.397E-22 0.268E-22 -.281E-22   -.167E-10 0.151E-09 -.169E-10
   0.101E-05 -.619E-07 -.568E-06   -.567E-07 0.619E-08 -.183E-06   -.639E-22 -.169E-23 -.271E-22   -.112E-10 -.327E-10 -.322E-10
   -.687E-06 0.437E-07 0.437E-07   -.300E-06 -.696E-06 -.696E-06   -.292E-23 0.296E-22 -.331E-23   0.146E-09 -.112E-10 -.104E-10
   -.568E-06 0.101E-05 -.619E-07   -.183E-06 -.567E-07 0.619E-08   -.455E-22 0.698E-22 -.248E-22   -.313E-10 -.112E-10 -.324E-10
   0.437E-07 0.437E-07 -.687E-06   -.696E-06 -.696E-06 -.300E-06   0.182E-22 -.256E-22 0.285E-22   -.106E-10 -.106E-10 0.147E-09
   0.999E-06 -.844E-07 0.999E-06   -.210E-06 -.966E-06 -.210E-06   0.506E-23 -.213E-22 -.151E-22   -.610E-10 0.118E-09 -.613E-10
   0.999E-06 0.999E-06 -.844E-07   -.210E-06 -.210E-06 -.966E-06   0.354E-22 -.165E-22 0.421E-22   -.610E-10 -.607E-10 0.117E-09
   0.617E-06 0.617E-06 0.617E-06   -.105E-05 -.105E-05 -.105E-05   0.232E-17 -.753E-19 -.325E-18   -.754E-10 -.752E-10 -.743E-10
   -.676E-06 -.676E-06 -.676E-06   0.619E-06 0.619E-06 0.619E-06   -.248E-17 -.177E-17 0.239E-17   -.748E-10 -.758E-10 -.753E-10
   0.617E-06 0.170E-06 0.170E-06   -.105E-05 -.544E-06 -.544E-06   0.394E-17 -.165E-17 0.000E+00   -.753E-10 0.518E-10 0.525E-10
   -.542E-06 -.676E-06 -.542E-06   0.908E-06 0.619E-06 0.908E-06   -.156E-17 0.127E-17 0.434E-18   0.370E-10 -.747E-10 0.368E-10
   0.170E-06 0.617E-06 0.170E-06   -.544E-06 -.105E-05 -.544E-06   0.329E-17 0.521E-18 0.173E-17   0.516E-10 -.748E-10 0.513E-10
   -.676E-06 -.542E-06 -.542E-06   0.619E-06 0.908E-06 0.908E-06   0.503E-18 0.509E-18 -.260E-17   -.749E-10 0.364E-10 0.370E-10
   0.170E-06 0.170E-06 0.617E-06   -.544E-06 -.544E-06 -.105E-05   0.351E-17 0.792E-18 -.325E-18   0.516E-10 0.518E-10 -.754E-10
   -.542E-06 -.542E-06 -.676E-06   0.908E-06 0.908E-06 0.619E-06   -.852E-18 -.264E-17 0.217E-18   0.371E-10 0.377E-10 -.757E-10
   0.716E+02 0.716E+02 0.716E+02   -.744E+02 -.744E+02 -.744E+02   0.273E+01 0.273E+01 0.273E+01   0.200E-02 0.200E-02 0.200E-02
   -.716E+02 0.716E+02 0.716E+02   0.744E+02 -.744E+02 -.744E+02   -.273E+01 0.273E+01 0.273E+01   -.200E-02 0.200E-02 0.200E-02
   -.716E+02 -.716E+02 0.716E+02   0.744E+02 0.744E+02 -.744E+02   -.273E+01 -.273E+01 0.273E+01   -.200E-02 -.200E-02 0.200E-02
   0.716E+02 -.716E+02 0.716E+02   -.744E+02 0.744E+02 -.744E+02   0.273E+01 -.273E+01 0.273E+01   0.200E-02 -.200E-02 0.200E-02
   0.716E+02 -.716E+02 -.716E+02   -.744E+02 0.744E+02 0.744E+02   0.273E+01 -.273E+01 -.273E+01   0.200E-02 -.200E-02 -.200E-02
   0.716E+02 0.716E+02 -.716E+02   -.744E+02 -.744E+02 0.744E+02   0.273E+01 0.273E+01 -.273E+01   0.200E-02 0.200E-02 -.200E-02
   -.716E+02 0.716E+02 -.716E+02   0.744E+02 -.744E+02 0.744E+02   -.273E+01 0.273E+01 -.273E+01   -.200E-02 0.200E-02 -.200E-02
   -.716E+02 -.716E+02 -.716E+02   0.744E+02 0.744E+02 0.744E+02   -.273E+01 -.273E+01 -.273E+01   -.200E-02 -.200E-02 -.200E-02
   0.716E+02 -.716E+02 -.716E+02   -.744E+02 0.744E+02 0.744E+02   0.273E+01 -.273E+01 -.273E+01   0.200E-02 -.200E-02 -.200E-02
   0.716E+02 0.716E+02 -.716E+02   -.744E+02 -.744E+02 0.744E+02   0.273E+01 0.273E+01 -.273E+01   0.200E-02 0.200E-02 -.200E-02
   -.716E+02 0.716E+02 -.716E+02   0.744E+02 -.744E+02 0.744E+02   -.273E+01 0.273E+01 -.273E+01   -.200E-02 0.200E-02 -.200E-02
   -.716E+02 -.716E+02 -.716E+02   0.744E+02 0.744E+02 0.744E+02   -.273E+01 -.273E+01 -.273E+01   -.200E-02 -.200E-02 -.200E-02
   -.716E+02 -.716E+02 0.716E+02   0.744E+02 0.744E+02 -.744E+02   -.273E+01 -.273E+01 0.273E+01   -.200E-02 -.200E-02 0.200E-02
   0.716E+02 -.716E+02 0.716E+02   -.744E+02 0.744E+02 -.744E+02   0.273E+01 -.273E+01 0.273E+01   0.200E-02 -.200E-02 0.200E-02
   -.716E+02 0.716E+02 0.716E+02   0.744E+02 -.744E+02 -.744E+02   -.273E+01 0.273E+01 0.273E+01   -.200E-02 0.200E-02 0.200E-02
   0.716E+02 -.716E+02 -.716E+02   -.744E+02 0.744E+02 0.744E+02   0.273E+01 -.273E+01 -.273E+01   0.200E-02 -.200E-02 -.200E-02
   -.716E+02 0.716E+02 -.716E+02   0.744E+02 -.744E+02 0.744E+02   -.273E+01 0.273E+01 -.273E+01   -.200E-02 0.200E-02 -.200E-02
   -.716E+02 0.716E+02 0.716E+02   0.744E+02 -.744E+02 -.744E+02   -.273E+01 0.273E+01 0.273E+01   -.200E-02 0.200E-02 0.200E-02
   -.716E+02 -.716E+02 0.716E+02   0.744E+02 0.744E+02 -.744E+02   -.273E+01 -.273E+01 0.273E+01   -.200E-02 -.200E-02 0.200E-02
   0.716E+02 -.716E+02 0.716E+02   -.744E+02 0.744E+02 -.744E+02   0.273E+01 -.273E+01 0.273E+01   0.200E-02 -.200E-02 0.200E-02
   0.716E+02 0.716E+02 0.716E+02   -.744E+02 -.744E+02 -.744E+02   0.273E+01 0.273E+01 0.273E+01   0.200E-02 0.200E-02 0.200E-02
   0.716E+02 0.716E+02 -.716E+02   -.744E+02 -.744E+02 0.744E+02   0.273E+01 0.273E+01 -.273E+01   0.200E-02 0.200E-02 -.200E-02
   -.716E+02 -.716E+02 0.716E+02   0.744E+02 0.744E+02 -.744E+02   -.273E+01 -.273E+01 0.273E+01   -.200E-02 -.200E-02 0.200E-02
   -.716E+02 0.716E+02 -.716E+02   0.744E+02 -.744E+02 0.744E+02   -.273E+01 0.273E+01 -.273E+01   -.200E-02 0.200E-02 -.200E-02
   0.716E+02 -.716E+02 -.716E+02   -.744E+02 0.744E+02 0.744E+02   0.273E+01 -.273E+01 -.273E+01   0.200E-02 -.200E-02 -.200E-02
   0.716E+02 0.716E+02 -.716E+02   -.744E+02 -.744E+02 0.744E+02   0.273E+01 0.273E+01 -.273E+01   0.200E-02 0.200E-02 -.200E-02
   0.716E+02 -.716E+02 0.716E+02   -.744E+02 0.744E+02 -.744E+02   0.273E+01 -.273E+01 0.273E+01   0.200E-02 -.200E-02 0.200E-02
   -.716E+02 0.716E+02 0.716E+02   0.744E+02 -.744E+02 -.744E+02   -.273E+01 0.273E+01 0.273E+01   -.200E-02 0.200E-02 0.200E-02
   0.716E+02 0.716E+02 0.716E+02   -.744E+02 -.744E+02 -.744E+02   0.273E+01 0.273E+01 0.273E+01   0.200E-02 0.200E-02 0.200E-02
   -.716E+02 -.716E+02 -.716E+02   0.744E+02 0.744E+02 0.744E+02   -.273E+01 -.273E+01 -.273E+01   -.200E-02 -.200E-02 -.200E-02
   -.716E+02 -.716E+02 -.716E+02   0.744E+02 0.744E+02 0.744E+02   -.273E+01 -.273E+01 -.273E+01   -.200E-02 -.200E-02 -.200E-02
   0.716E+02 0.716E+02 0.716E+02   -.744E+02 -.744E+02 -.744E+02   0.273E+01 0.273E+01 0.273E+01   0.200E-02 0.200E-02 0.200E-02
 -----------------------------------------------------------------------------------------------
   0.382E-04 0.382E-04 0.382E-04   0.242E-12 -.327E-12 0.114E-12   0.311E-14 -.844E-14 0.222E-14   0.234E-10 0.230E-10 0.237E-10
 
 
 POSITION                                       TOTAL-FORCE (eV/Angst)
 -----------------------------------------------------------------------------------
      4.99202      4.99202      4.99202        -0.000000      0.000000      0.000000
      4.99202      6.98883      6.98883        -0.000000      0.000000      0.000000
      2.99521      6.98883      0.99840        -0.000000      0.000000      0.000000
      2.99521      4.99202      2.99521        -0.000000      0.000000      0.000000
      0.99840      2.99521      6.98883        -0.000000      0.000000      0.000000
      6.98883      2.99521      0.99840        -0.000000      0.000000      0.000000
      6.98883      0.99840      2.99521        -0.000000      0.000000      0.000000
      4.99202      0.99840      0.99840        -0.000000      0.000000      0.000000
      6.98883      6.98883      4.99202        -0.000000      0.000000      0.000000
      6.98883      4.99202      6.98883        -0.000000      0.000000      0.000000
      0.99840      6.98883      2.99521        -0.000000      0.000000      0.000000
      4.99202      2.99521      2.99521        -0.000000      0.000000      0.000000
      2.99521      0.99840      6.98883        -0.000000      0.000000      0.000000
      2.99521      2.99521      4.99202        -0.000000      0.000000      0.000000
      0.99840      4.99202      0.99840        -0.000000      0.000000      0.000000
      0.99840      0.99840      4.99202        -0.000000      0.000000      0.000000
     -0.00000      0.00000     -0.00000        -0.000000      0.000000      0.000000
      1.99681      1.99681      1.99681        -0.000000      0.000000      0.000000
      0.00000      3.99362      3.99362        -0.000000      0.000000      0.000000
      5.99043      1.99681      5.99043        -0.000000      0.000000      0.000000
      3.99362      0.00000      3.99362        -0.000000      0.000000      0.000000
      1.99681      5.99043      5.99043        -0.000000      0.000000      0.000000
      3.99362      3.99362      0.00000        -0.000000      0.000000      0.000000
      5.99043      5.99043      1.99681        -0.000000      0.000000      0.000000
      3.07169      3.07169      3.07169        -0.002377     -0.002377     -0.002377
      6.91235      5.06850      5.06850         0.002377     -0.002377     -0.002377
      4.91554      0.92192      7.06531         0.002377      0.002377     -0.002377
      1.07489      6.91235      1.07489        -0.002377      0.002377     -0.002377
      3.07169      0.92192      0.92192        -0.002377      0.002377      0.002377
      1.07489      5.06850      2.91873        -0.002377     -0.002377      0.002377
      4.91554      3.07169      4.91554         0.002377     -0.002377      0.002377
      6.91235      6.91235      6.91235         0.002377      0.002377      0.002377
      7.06531      4.91554      0.92192        -0.002377      0.002377      0.002377
      5.06850      1.07489      2.91873        -0.002377     -0.002377      0.002377
      0.92192      7.06531      4.91554         0.002377     -0.002377      0.002377
      6.91235      2.91873      2.91873         0.002377      0.002377      0.002377
      0.92192      0.92192      3.07169         0.002377      0.002377     -0.002377
      5.06850      6.91235      5.06850        -0.002377      0.002377     -0.002377
      2.91873      5.06850      1.07489         0.002377     -0.002377     -0.002377
      3.07169      4.91554      4.91554        -0.002377      0.002377      0.002377
      0.92192      3.07169      0.92192         0.002377     -0.002377      0.002377
      6.91235      1.07489      1.07489         0.002377     -0.002377     -0.002377
      0.92192      4.91554      7.06531         0.002377      0.002377     -0.002377
      1.07489      2.91873      5.06850        -0.002377      0.002377     -0.002377
      3.07169      7.06531      7.06531        -0.002377     -0.002377     -0.002377
      1.07489      1.07489      6.91235        -0.002377     -0.002377      0.002377
      4.91554      4.91554      3.07169         0.002377      0.002377     -0.002377
      4.91554      7.06531      0.92192         0.002377     -0.002377      0.002377
      7.06531      0.92192      4.91554        -0.002377      0.002377      0.002377
      5.06850      5.06850      6.91235        -0.002377     -0.002377      0.002377
      5.06850      2.91873      1.07489        -0.002377      0.002377     -0.002377
      2.91873      1.07489      5.06850         0.002377     -0.002377     -0.002377
      7.06531      3.07169      7.06531        -0.002377     -0.002377     -0.002377
      2.91873      6.91235      2.91873         0.002377      0.002377      0.002377
      2.91873      2.91873      6.91235         0.002377      0.002377      0.002377
      7.06531      7.06531      3.07169        -0.002377     -0.002377     -0.002377
 -----------------------------------------------------------------------------------
    total drift:                                0.000038      0.000038      0.000038


--------------------------------------------------------------------------------------------------------



  FREE ENERGIE OF THE ION-ELECTRON SYSTEM (eV)
  ---------------------------------------------------
  free  energy   TOTEN  =      -379.48850002 eV

  energy  without entropy=     -379.18212058  energy(sigma->0) =     -379.33531030
 
 d Force = 0.2486275E-03[ 0.112E-03, 0.386E-03]  d Energy = 0.3378509E-02-0.313E-02
 d Force = 0.3495030E+01[ 0.349E+01, 0.350E+01]  d Ewald  = 0.2910414E+02-0.256E+02


--------------------------------------------------------------------------------------------------------


    POTLOK:  cpu time    0.0760: real time    0.0764


--------------------------------------------------------------------------------------------------------


 stress matrix after NEB project (eV)
     -0.01579     -0.00000      0.00000
     -0.00000     -0.01579      0.00000
     -0.00000     -0.00000     -0.01579
  FORCES: max atom, RMS     0.004118    0.003113
  FORCE total and by dimension    0.023293    0.002377
  Stress total and by dimension    0.027345    0.015788


--------------------------------------------------------------------------------------------------------


  
 reached required accuracy - stopping structural energy minimisation
     LOOP+:  cpu time  616.0537: real time  619.3802
    4ORBIT:  cpu time    0.0000: real time    0.0000

 total amount of memory used by VASP MPI-rank0    69647. kBytes
=======================================================================

   base      :      30000. kBytes
   nonl-proj :       9394. kBytes
   fftplans  :       1605. kBytes
   grid      :       2470. kBytes
   one-center:        217. kBytes
   wavefun   :      25961. kBytes
 
  
  
 General timing and accounting informations for this job:
 ========================================================
  
                  Total CPU time used (sec):     6855.323
                            User time (sec):     6816.126
                          System time (sec):       39.196
                         Elapsed time (sec):     6893.200
  
                   Maximum memory used (kb):       86688.
                   Average memory used (kb):           0.
  
                          Minor page faults:       147385
                          Major page faults:           12
                 Voluntary context switches:          767
